#     Step Nr.          Time[fs]        Kin.[a.u.]          Temp[K]            Pot.[a.u.]        Cons Qty[a.u.]        UsedTime[s]
         0            0.000000         0.009975468       300.000000000       -31.297885373       -31.287909904         0.000000000
         1            0.500000         0.009980435       300.149355595       -31.297890335       -31.287909901        20.881730749
         2            1.000000         0.009995385       300.598964458       -31.297905285       -31.287909900        10.199698742
         3            1.500000         0.010020440       301.352455416       -31.297930343       -31.287909903         9.527669955
         4            2.000000         0.010055749       302.414350563       -31.297965611       -31.287909862         9.869754617
