 
================================================================================
| EXCITING CARBON started                                                      =
| version hash id:                                                             =
| MPI version using      4 processor(s)                                        =
| |  using MPI-2 features                                                      =
|                                                                              =
| Date (DD-MM-YYYY) : 24-06-2019                                               =
| Time (hh:mm:ss)   : 19:33:06                                                 =
|                                                                              =
| All units are atomic (Hartree, Bohr, etc.)                                   =
================================================================================
 
********************************************************************************
| Ground-state run starting from atomic densities                              *
********************************************************************************
 
++++++++++++++++++++++++++++++++++++++++++++++++++++++++++++++++++++++++++++++++
| Starting initialization                                                      +
++++++++++++++++++++++++++++++++++++++++++++++++++++++++++++++++++++++++++++++++
 
 Lattice vectors (cartesian) :
      6.6374524460      0.0000000000      0.0000000000
     -3.3187262230      5.7482023510      0.0000000000
      0.0000000000      0.0000000000     41.1327740200
 
 Reciprocal lattice vectors (cartesian) :
      0.9466260374      0.5465348054      0.0000000000
      0.0000000000      1.0930696109      0.0000000000
      0.0000000000      0.0000000000      0.1527537458
 
 Unit cell volume                           :    1569.3559928622
 Brillouin zone volume                      :       0.1580586015
 
 Species :    1 (Mo)
     parameters loaded from                 :    Mo.xml
     name                                   :    molybdenum
     nuclear charge                         :     -42.00000000
     electronic charge                      :      42.00000000
     atomic mass                            :  174887.92120000
     muffin-tin radius                      :       2.40000000
     # of radial points in muffin-tin       :     400
 
     atomic positions (lattice) :
       1 :   0.00000000  0.00000000  0.00000000
 
 Species :    2 (Te)
     parameters loaded from                 :    Te.xml
     name                                   :    tellurium
     nuclear charge                         :     -52.00000000
     electronic charge                      :      52.00000000
     atomic mass                            :  232600.57070000
     muffin-tin radius                      :       2.50000000
     # of radial points in muffin-tin       :     400
 
     atomic positions (lattice) :
       1 :   0.33333333  0.66666667  0.08372867
       2 :   0.33333333  0.66666667  0.91627133
 
 Total number of atoms per unit cell        :       3
 
 Spin treatment                             :    spin-polarised
 Spin-orbit coupling is included
 Global magnetic field (cartesian) :        0.00000000   0.00000000   0.00000000
 non-collinear magnetisation
 
 Number of Bravais lattice symmetries       :      24
 Number of crystal symmetries               :      12
 
 k-point grid                               :       2    2    1
 Total number of k-points                   :       2
 k-point set is reduced with crystal symmetries
 
 R^MT_min * |G+k|_max (rgkmax)              :       4.00000000
 Species with R^MT_min                      :       1 (Mo)
 Maximum |G+k| for APW functions            :       1.66666667
 Maximum |G| for potential and density      :      12.00000000
 
 G-vector grid sizes                        :      27    27   160
 Total number of G-vectors                  :   45865
 
 Maximum angular momentum used for
     APW functions                          :       8
     computing H and O matrix elements      :       8
     potential and density                  :       8
     inner part of muffin-tin               :       2
 
 Total nuclear charge                       :    -146.00000000
 Total electronic charge                    :     146.00000000
 Total core charge                          :     100.00000000
 Total valence charge                       :      46.00000000
 
 Number of empty states                     :      10
 Total number of valence states             :      68
 
 Maximum Hamiltonian size                   :     167
 Maximum number of plane-waves              :     126
 Total number of local-orbitals             :      41
 
 Exchange-correlation type                  :      20
     Perdew-Burke-Ernzerhof, Phys. Rev. Lett. 77, 3865 (1996)
     Generalised gradient approximation (GGA)
 
 Smearing scheme                            :    Gaussian
 Smearing width                             :       0.00100000
 
 Using multisecant Broyden potential mixing
 
++++++++++++++++++++++++++++++++++++++++++++++++++++++++++++++++++++++++++++++++
| Ending initialization                                                        +
++++++++++++++++++++++++++++++++++++++++++++++++++++++++++++++++++++++++++++++++
 
********************************************************************************
| Groundstate module started                                                   *
********************************************************************************
 Output level for this task is set to normal
 
++++++++++++++++++++++++++++++++++++++++++++++++++++++++++++++++++++++++++++++++
| Self-consistent loop started                                                 +
++++++++++++++++++++++++++++++++++++++++++++++++++++++++++++++++++++++++++++++++
 Density and potential initialised from atomic data
 
 
++++++++++++++++++++++++++++++++++++++++++++++++++++++++++++++++++++++++++++++++
| SCF iteration number :    1                                                  +
++++++++++++++++++++++++++++++++++++++++++++++++++++++++++++++++++++++++++++++++
 Total energy                               :    -17620.94550829
 _______________________________________________________________
 Fermi energy                               :        -0.00786132
 Kinetic energy                             :     18597.01293016
 Coulomb energy                             :    -35741.82633276
 Exchange energy                            :      -468.28614235
 Correlation energy                         :        -7.84596334
 No external B-field energy in total energy
 
 DOS at Fermi energy (states/Ha/cell)       :         0.00000000
 
 Electron charges :
     core                                   :       100.00000000
     core leakage                           :         0.00141978
     valence                                :        46.00000000
     interstitial                           :         7.57583981
     charge in muffin-tin spheres :
                  atom     1    Mo          :        38.65312172
                  atom     2    Te          :        49.88551923
                  atom     3    Te          :        49.88551923
     total charge in muffin-tins            :       138.42416019
     total charge                           :       146.00000000
 
 Moments :
     interstitial                 :     0.00000000     0.00000000     0.00000000
     moment in muffin-tin spheres :
         atom     1    Mo         :     0.00000000     0.00000000     0.00000000
         atom     2    Te         :     0.00000000    -0.00000000     0.00000000
         atom     3    Te         :    -0.00000000    -0.00000000     0.00000000
     total moment in muffin-tins  :     0.00000000    -0.00000000     0.00000000
     total moment                 :     0.00000000     0.00000000     0.00000000
 
 Estimated fundamental gap                  :         0.09427826
        valence-band maximum at    1      0.0000  0.0000  0.0000
     conduction-band minimum at    2      0.5000  0.0000  0.0000
 
 Wall time (seconds)                        :         9.26
 
++++++++++++++++++++++++++++++++++++++++++++++++++++++++++++++++++++++++++++++++
| SCF iteration number :    2                                                  +
++++++++++++++++++++++++++++++++++++++++++++++++++++++++++++++++++++++++++++++++
 Total energy                               :    -17664.24485207
 _______________________________________________________________
 Fermi energy                               :        -0.06121455
 Kinetic energy                             :     18557.37151863
 Coulomb energy                             :    -35745.06089267
 Exchange energy                            :      -468.69967363
 Correlation energy                         :        -7.85580439
 No external B-field energy in total energy
 
 DOS at Fermi energy (states/Ha/cell)       :         0.00000000
 
 Electron charges :
     core                                   :       100.00000000
     core leakage                           :         0.00144610
     valence                                :        46.00000000
     interstitial                           :         7.19163793
     charge in muffin-tin spheres :
                  atom     1    Mo          :        39.72697707
                  atom     2    Te          :        49.54069250
                  atom     3    Te          :        49.54069250
     total charge in muffin-tins            :       138.80836207
     total charge                           :       146.00000000
 
 Moments :
     interstitial                 :    -0.00000000    -0.00000000    -0.00000000
     moment in muffin-tin spheres :
         atom     1    Mo         :    -0.00000000    -0.00000000     0.00000000
         atom     2    Te         :     0.00000000    -0.00000000     0.00000000
         atom     3    Te         :    -0.00000000    -0.00000000     0.00000000
     total moment in muffin-tins  :     0.00000000    -0.00000000     0.00000000
     total moment                 :     0.00000000    -0.00000000    -0.00000000
 
 Estimated fundamental gap                  :         0.05970124
        valence-band maximum at    1      0.0000  0.0000  0.0000
     conduction-band minimum at    2      0.5000  0.0000  0.0000
 
 Wall time (seconds)                        :        13.89
 
 RMS change in effective potential (target) :  0.688402E-01  ( 0.100000E-05)
 Absolute change in total energy   (target) :   43.2993      ( 0.100000E-05)
 Charge distance                   (target) :  0.156557E-01  ( 0.100000E-04)
 Abs. change in max-nonIBS-force   (target) :   3.87384      ( 0.500000E-04)
 
++++++++++++++++++++++++++++++++++++++++++++++++++++++++++++++++++++++++++++++++
| SCF iteration number :    3                                                  +
++++++++++++++++++++++++++++++++++++++++++++++++++++++++++++++++++++++++++++++++
 Total energy                               :    -17639.94117812
 _______________________________________________________________
 Fermi energy                               :        -0.03969423
 Kinetic energy                             :     18578.99465103
 Coulomb energy                             :    -35742.59397656
 Exchange energy                            :      -468.49226533
 Correlation energy                         :        -7.84958726
 No external B-field energy in total energy
 
 DOS at Fermi energy (states/Ha/cell)       :         0.00000000
 
 Electron charges :
     core                                   :       100.00000000
     core leakage                           :         0.00145192
     valence                                :        46.00000000
     interstitial                           :         7.34106010
     charge in muffin-tin spheres :
                  atom     1    Mo          :        39.33892981
                  atom     2    Te          :        49.66000505
                  atom     3    Te          :        49.66000505
     total charge in muffin-tins            :       138.65893990
     total charge                           :       146.00000000
 
 Moments :
     interstitial                 :     0.00000000    -0.00000000    -0.00000000
     moment in muffin-tin spheres :
         atom     1    Mo         :     0.00000000     0.00000000     0.00000000
         atom     2    Te         :    -0.00000000     0.00000000     0.00000000
         atom     3    Te         :     0.00000000     0.00000000     0.00000000
     total moment in muffin-tins  :     0.00000000     0.00000000     0.00000000
     total moment                 :     0.00000000     0.00000000    -0.00000000
 
 Estimated fundamental gap                  :         0.07190146
        valence-band maximum at    1      0.0000  0.0000  0.0000
     conduction-band minimum at    2      0.5000  0.0000  0.0000
 
 Wall time (seconds)                        :        18.62
 
 RMS change in effective potential (target) :  0.241942E-01  ( 0.100000E-05)
 Absolute change in total energy   (target) :   24.3037      ( 0.100000E-05)
 Charge distance                   (target) :  0.683565E-02  ( 0.100000E-04)
 Abs. change in max-nonIBS-force   (target) :   2.93980      ( 0.500000E-04)
 
++++++++++++++++++++++++++++++++++++++++++++++++++++++++++++++++++++++++++++++++
| SCF iteration number :    4                                                  +
++++++++++++++++++++++++++++++++++++++++++++++++++++++++++++++++++++++++++++++++
 Total energy                               :    -17663.70557058
 _______________________________________________________________
 Fermi energy                               :        -0.07776989
 Kinetic energy                             :     18557.76833088
 Coulomb energy                             :    -35744.86416862
 Exchange energy                            :      -468.75550389
 Correlation energy                         :        -7.85422895
 No external B-field energy in total energy
 
 DOS at Fermi energy (states/Ha/cell)       :         0.00000000
 
 Electron charges :
     core                                   :       100.00000000
     core leakage                           :         0.00141884
     valence                                :        46.00000000
     interstitial                           :         7.10021428
     charge in muffin-tin spheres :
                  atom     1    Mo          :        39.79414871
                  atom     2    Te          :        49.55281851
                  atom     3    Te          :        49.55281851
     total charge in muffin-tins            :       138.89978572
     total charge                           :       146.00000000
 
 Moments :
     interstitial                 :    -0.00000000    -0.00000000    -0.00000000
     moment in muffin-tin spheres :
         atom     1    Mo         :    -0.00000000     0.00000000     0.00000000
         atom     2    Te         :     0.00000000    -0.00000000     0.00000000
         atom     3    Te         :     0.00000000    -0.00000000     0.00000000
     total moment in muffin-tins  :     0.00000000    -0.00000000     0.00000000
     total moment                 :    -0.00000000    -0.00000000    -0.00000000
 
 Estimated fundamental gap                  :         0.05633523
        valence-band maximum at    1      0.0000  0.0000  0.0000
     conduction-band minimum at    2      0.5000  0.0000  0.0000
 
 Wall time (seconds)                        :        23.40
 
 RMS change in effective potential (target) :  0.397180E-01  ( 0.100000E-05)
 Absolute change in total energy   (target) :   23.7644      ( 0.100000E-05)
 Charge distance                   (target) :  0.658183E-02  ( 0.100000E-04)
 Abs. change in max-nonIBS-force   (target) :   1.46932      ( 0.500000E-04)
 
++++++++++++++++++++++++++++++++++++++++++++++++++++++++++++++++++++++++++++++++
| SCF iteration number :    5                                                  +
++++++++++++++++++++++++++++++++++++++++++++++++++++++++++++++++++++++++++++++++
 Total energy                               :    -17641.26280213
 _______________________________________________________________
 Fermi energy                               :        -0.05602061
 Kinetic energy                             :     18576.48137505
 Coulomb energy                             :    -35741.40389111
 Exchange energy                            :      -468.49085149
 Correlation energy                         :        -7.84943457
 No external B-field energy in total energy
 
 DOS at Fermi energy (states/Ha/cell)       :         0.00000000
 
 Electron charges :
     core                                   :       100.00000000
     core leakage                           :         0.00144300
     valence                                :        46.00000000
     interstitial                           :         7.29021821
     charge in muffin-tin spheres :
                  atom     1    Mo          :        39.39112243
                  atom     2    Te          :        49.65932968
                  atom     3    Te          :        49.65932968
     total charge in muffin-tins            :       138.70978179
     total charge                           :       146.00000000
 
 Moments :
     interstitial                 :    -0.00000000    -0.00000000     0.00000000
     moment in muffin-tin spheres :
         atom     1    Mo         :    -0.00000000    -0.00000000     0.00000000
         atom     2    Te         :     0.00000000    -0.00000000     0.00000000
         atom     3    Te         :    -0.00000000    -0.00000000     0.00000000
     total moment in muffin-tins  :    -0.00000000    -0.00000000     0.00000000
     total moment                 :    -0.00000000    -0.00000000     0.00000000
 
 Estimated fundamental gap                  :         0.06661938
        valence-band maximum at    1      0.0000  0.0000  0.0000
     conduction-band minimum at    2      0.5000  0.0000  0.0000
 
 Wall time (seconds)                        :        28.12
 
 RMS change in effective potential (target) :  0.565124E-02  ( 0.100000E-05)
 Absolute change in total energy   (target) :   22.4428      ( 0.100000E-05)
 Charge distance                   (target) :  0.605907E-02  ( 0.100000E-04)
 Abs. change in max-nonIBS-force   (target) :   2.08929      ( 0.500000E-04)
 
++++++++++++++++++++++++++++++++++++++++++++++++++++++++++++++++++++++++++++++++
| SCF iteration number :    6                                                  +
++++++++++++++++++++++++++++++++++++++++++++++++++++++++++++++++++++++++++++++++
 Total energy                               :    -17643.33920633
 _______________________________________________________________
 Fermi energy                               :        -0.05542791
 Kinetic energy                             :     18575.52310995
 Coulomb energy                             :    -35742.46111068
 Exchange energy                            :      -468.55155291
 Correlation energy                         :        -7.84965269
 No external B-field energy in total energy
 
 DOS at Fermi energy (states/Ha/cell)       :         0.00000000
 
 Electron charges :
     core                                   :       100.00000000
     core leakage                           :         0.00143868
     valence                                :        46.00000000
     interstitial                           :         7.25748822
     charge in muffin-tin spheres :
                  atom     1    Mo          :        39.46242618
                  atom     2    Te          :        49.64004280
                  atom     3    Te          :        49.64004280
     total charge in muffin-tins            :       138.74251178
     total charge                           :       146.00000000
 
 Moments :
     interstitial                 :    -0.00000000    -0.00000000     0.00000000
     moment in muffin-tin spheres :
         atom     1    Mo         :    -0.00000000    -0.00000000     0.00000000
         atom     2    Te         :    -0.00000000    -0.00000000     0.00000000
         atom     3    Te         :    -0.00000000     0.00000000     0.00000000
     total moment in muffin-tins  :    -0.00000000    -0.00000000     0.00000000
     total moment                 :    -0.00000000    -0.00000000     0.00000000
 
 Estimated fundamental gap                  :         0.06594604
        valence-band maximum at    1      0.0000  0.0000  0.0000
     conduction-band minimum at    2      0.5000  0.0000  0.0000
 
 Wall time (seconds)                        :        32.81
 
 RMS change in effective potential (target) :  0.241552E-02  ( 0.100000E-05)
 Absolute change in total energy   (target) :   2.07640      ( 0.100000E-05)
 Charge distance                   (target) :  0.117937E-02  ( 0.100000E-04)
 Abs. change in max-nonIBS-force   (target) :  0.140679E-01  ( 0.500000E-04)
 
++++++++++++++++++++++++++++++++++++++++++++++++++++++++++++++++++++++++++++++++
| SCF iteration number :    7                                                  +
++++++++++++++++++++++++++++++++++++++++++++++++++++++++++++++++++++++++++++++++
 Total energy                               :    -17643.12267166
 _______________________________________________________________
 Fermi energy                               :        -0.05599061
 Kinetic energy                             :     18575.47835228
 Coulomb energy                             :    -35742.21174319
 Exchange energy                            :      -468.53959356
 Correlation energy                         :        -7.84968719
 No external B-field energy in total energy
 
 DOS at Fermi energy (states/Ha/cell)       :         0.00000000
 
 Electron charges :
     core                                   :       100.00000000
     core leakage                           :         0.00143994
     valence                                :        46.00000000
     interstitial                           :         7.26265403
     charge in muffin-tin spheres :
                  atom     1    Mo          :        39.45183932
                  atom     2    Te          :        49.64275333
                  atom     3    Te          :        49.64275333
     total charge in muffin-tins            :       138.73734597
     total charge                           :       146.00000000
 
 Moments :
     interstitial                 :    -0.00000000    -0.00000000     0.00000000
     moment in muffin-tin spheres :
         atom     1    Mo         :    -0.00000000    -0.00000000     0.00000000
         atom     2    Te         :     0.00000000     0.00000000     0.00000000
         atom     3    Te         :     0.00000000    -0.00000000     0.00000000
     total moment in muffin-tins  :     0.00000000    -0.00000000     0.00000000
     total moment                 :    -0.00000000    -0.00000000     0.00000000
 
 Estimated fundamental gap                  :         0.06587386
        valence-band maximum at    1      0.0000  0.0000  0.0000
     conduction-band minimum at    2      0.5000  0.0000  0.0000
 
 Wall time (seconds)                        :        37.67
 
 RMS change in effective potential (target) :  0.151583E-02  ( 0.100000E-05)
 Absolute change in total energy   (target) :  0.216535      ( 0.100000E-05)
 Charge distance                   (target) :  0.220180E-03  ( 0.100000E-04)
 Abs. change in max-nonIBS-force   (target) :  0.121454E-01  ( 0.500000E-04)
 
++++++++++++++++++++++++++++++++++++++++++++++++++++++++++++++++++++++++++++++++
| SCF iteration number :    8                                                  +
++++++++++++++++++++++++++++++++++++++++++++++++++++++++++++++++++++++++++++++++
 Total energy                               :    -17642.39072257
 _______________________________________________________________
 Fermi energy                               :        -0.05494925
 Kinetic energy                             :     18576.19913332
 Coulomb energy                             :    -35742.20261541
 Exchange energy                            :      -468.53775768
 Correlation energy                         :        -7.84948280
 No external B-field energy in total energy
 
 DOS at Fermi energy (states/Ha/cell)       :         0.00000000
 
 Electron charges :
     core                                   :       100.00000000
     core leakage                           :         0.00144061
     valence                                :        46.00000000
     interstitial                           :         7.26421582
     charge in muffin-tin spheres :
                  atom     1    Mo          :        39.44746438
                  atom     2    Te          :        49.64415990
                  atom     3    Te          :        49.64415990
     total charge in muffin-tins            :       138.73578418
     total charge                           :       146.00000000
 
 Moments :
     interstitial                 :     0.00000000     0.00000000    -0.00000000
     moment in muffin-tin spheres :
         atom     1    Mo         :    -0.00000000     0.00000000     0.00000000
         atom     2    Te         :     0.00000000    -0.00000000     0.00000000
         atom     3    Te         :    -0.00000000    -0.00000000     0.00000000
     total moment in muffin-tins  :    -0.00000000     0.00000000     0.00000000
     total moment                 :     0.00000000     0.00000000    -0.00000000
 
 Estimated fundamental gap                  :         0.06623360
        valence-band maximum at    1      0.0000  0.0000  0.0000
     conduction-band minimum at    2      0.5000  0.0000  0.0000
 
 Wall time (seconds)                        :        42.40
 
 RMS change in effective potential (target) :  0.834985E-03  ( 0.100000E-05)
 Absolute change in total energy   (target) :  0.731949      ( 0.100000E-05)
 Charge distance                   (target) :  0.191576E-03  ( 0.100000E-04)
 Abs. change in max-nonIBS-force   (target) :  0.109749      ( 0.500000E-04)
 
++++++++++++++++++++++++++++++++++++++++++++++++++++++++++++++++++++++++++++++++
| SCF iteration number :    9                                                  +
++++++++++++++++++++++++++++++++++++++++++++++++++++++++++++++++++++++++++++++++
 Total energy                               :    -17642.52316440
 _______________________________________________________________
 Fermi energy                               :        -0.05518284
 Kinetic energy                             :     18576.01597734
 Coulomb energy                             :    -35742.15339540
 Exchange energy                            :      -468.53625559
 Correlation energy                         :        -7.84949075
 No external B-field energy in total energy
 
 DOS at Fermi energy (states/Ha/cell)       :         0.00000000
 
 Electron charges :
     core                                   :       100.00000000
     core leakage                           :         0.00144045
     valence                                :        46.00000000
     interstitial                           :         7.26294344
     charge in muffin-tin spheres :
                  atom     1    Mo          :        39.45092974
                  atom     2    Te          :        49.64306341
                  atom     3    Te          :        49.64306341
     total charge in muffin-tins            :       138.73705656
     total charge                           :       146.00000000
 
 Moments :
     interstitial                 :    -0.00000000    -0.00000000     0.00000000
     moment in muffin-tin spheres :
         atom     1    Mo         :     0.00000000    -0.00000000     0.00000000
         atom     2    Te         :    -0.00000000    -0.00000000     0.00000000
         atom     3    Te         :    -0.00000000     0.00000000     0.00000000
     total moment in muffin-tins  :     0.00000000    -0.00000000     0.00000000
     total moment                 :    -0.00000000    -0.00000000     0.00000000
 
 Estimated fundamental gap                  :         0.06614304
        valence-band maximum at    1      0.0000  0.0000  0.0000
     conduction-band minimum at    2      0.5000  0.0000  0.0000
 
 Wall time (seconds)                        :        47.25
 
 RMS change in effective potential (target) :  0.372284E-03  ( 0.100000E-05)
 Absolute change in total energy   (target) :  0.132442      ( 0.100000E-05)
 Charge distance                   (target) :  0.835959E-04  ( 0.100000E-04)
 Abs. change in max-nonIBS-force   (target) :  0.259197E-01  ( 0.500000E-04)
 
++++++++++++++++++++++++++++++++++++++++++++++++++++++++++++++++++++++++++++++++
| SCF iteration number :   10                                                  +
++++++++++++++++++++++++++++++++++++++++++++++++++++++++++++++++++++++++++++++++
 Total energy                               :    -17642.64157737
 _______________________________________________________________
 Fermi energy                               :        -0.05520688
 Kinetic energy                             :     18575.95643229
 Coulomb energy                             :    -35742.20983951
 Exchange energy                            :      -468.53865468
 Correlation energy                         :        -7.84951547
 No external B-field energy in total energy
 
 DOS at Fermi energy (states/Ha/cell)       :         0.00000000
 
 Electron charges :
     core                                   :       100.00000000
     core leakage                           :         0.00144003
     valence                                :        46.00000000
     interstitial                           :         7.26254107
     charge in muffin-tin spheres :
                  atom     1    Mo          :        39.45161045
                  atom     2    Te          :        49.64292424
                  atom     3    Te          :        49.64292424
     total charge in muffin-tins            :       138.73745893
     total charge                           :       146.00000000
 
 Moments :
     interstitial                 :    -0.00000000    -0.00000000     0.00000000
     moment in muffin-tin spheres :
         atom     1    Mo         :    -0.00000000    -0.00000000     0.00000000
         atom     2    Te         :     0.00000000    -0.00000000     0.00000000
         atom     3    Te         :    -0.00000000    -0.00000000     0.00000000
     total moment in muffin-tins  :     0.00000000    -0.00000000     0.00000000
     total moment                 :    -0.00000000    -0.00000000     0.00000000
 
 Estimated fundamental gap                  :         0.06613715
        valence-band maximum at    1      0.0000  0.0000  0.0000
     conduction-band minimum at    2      0.5000  0.0000  0.0000
 
 Wall time (seconds)                        :        51.96
 
 RMS change in effective potential (target) :  0.260479E-03  ( 0.100000E-05)
 Absolute change in total energy   (target) :  0.118413      ( 0.100000E-05)
 Charge distance                   (target) :  0.237775E-04  ( 0.100000E-04)
 Abs. change in max-nonIBS-force   (target) :  0.272175E-02  ( 0.500000E-04)
 
++++++++++++++++++++++++++++++++++++++++++++++++++++++++++++++++++++++++++++++++
| SCF iteration number :   11                                                  +
++++++++++++++++++++++++++++++++++++++++++++++++++++++++++++++++++++++++++++++++
 Total energy                               :    -17642.82200393
 _______________________________________________________________
 Fermi energy                               :        -0.05530404
 Kinetic energy                             :     18575.82855096
 Coulomb energy                             :    -35742.25957871
 Exchange energy                            :      -468.54141641
 Correlation energy                         :        -7.84955976
 No external B-field energy in total energy
 
 DOS at Fermi energy (states/Ha/cell)       :         0.00000000
 
 Electron charges :
     core                                   :       100.00000000
     core leakage                           :         0.00143969
     valence                                :        46.00000000
     interstitial                           :         7.26163160
     charge in muffin-tin spheres :
                  atom     1    Mo          :        39.45447112
                  atom     2    Te          :        49.64194864
                  atom     3    Te          :        49.64194864
     total charge in muffin-tins            :       138.73836840
     total charge                           :       146.00000000
 
 Moments :
     interstitial                 :     0.00000000    -0.00000000     0.00000000
     moment in muffin-tin spheres :
         atom     1    Mo         :     0.00000000    -0.00000000     0.00000000
         atom     2    Te         :     0.00000000     0.00000000     0.00000000
         atom     3    Te         :     0.00000000    -0.00000000     0.00000000
     total moment in muffin-tins  :     0.00000000    -0.00000000     0.00000000
     total moment                 :     0.00000000    -0.00000000     0.00000000
 
 Estimated fundamental gap                  :         0.06608736
        valence-band maximum at    1      0.0000  0.0000  0.0000
     conduction-band minimum at    2      0.5000  0.0000  0.0000
 
 Wall time (seconds)                        :        56.81
 
 RMS change in effective potential (target) :  0.130811E-03  ( 0.100000E-05)
 Absolute change in total energy   (target) :  0.180427      ( 0.100000E-05)
 Charge distance                   (target) :  0.521990E-04  ( 0.100000E-04)
 Abs. change in max-nonIBS-force   (target) :  0.141225E-01  ( 0.500000E-04)
 
++++++++++++++++++++++++++++++++++++++++++++++++++++++++++++++++++++++++++++++++
| SCF iteration number :   12                                                  +
++++++++++++++++++++++++++++++++++++++++++++++++++++++++++++++++++++++++++++++++
 Total energy                               :    -17642.74245665
 _______________________________________________________________
 Fermi energy                               :        -0.05528862
 Kinetic energy                             :     18575.87651304
 Coulomb energy                             :    -35742.22941325
 Exchange energy                            :      -468.54001436
 Correlation energy                         :        -7.84954208
 No external B-field energy in total energy
 
 DOS at Fermi energy (states/Ha/cell)       :         0.00000000
 
 Electron charges :
     core                                   :       100.00000000
     core leakage                           :         0.00143992
     valence                                :        46.00000000
     interstitial                           :         7.26192448
     charge in muffin-tin spheres :
                  atom     1    Mo          :        39.45363745
                  atom     2    Te          :        49.64221904
                  atom     3    Te          :        49.64221904
     total charge in muffin-tins            :       138.73807552
     total charge                           :       146.00000000
 
 Moments :
     interstitial                 :    -0.00000000    -0.00000000    -0.00000000
     moment in muffin-tin spheres :
         atom     1    Mo         :     0.00000000     0.00000000     0.00000000
         atom     2    Te         :     0.00000000     0.00000000     0.00000000
         atom     3    Te         :     0.00000000    -0.00000000     0.00000000
     total moment in muffin-tins  :     0.00000000    -0.00000000     0.00000000
     total moment                 :    -0.00000000    -0.00000000    -0.00000000
 
 Estimated fundamental gap                  :         0.06611110
        valence-band maximum at    1      0.0000  0.0000  0.0000
     conduction-band minimum at    2      0.5000  0.0000  0.0000
 
 Wall time (seconds)                        :        61.70
 
 RMS change in effective potential (target) :  0.272097E-04  ( 0.100000E-05)
 Absolute change in total energy   (target) :  0.795473E-01  ( 0.100000E-05)
 Charge distance                   (target) :  0.197887E-04  ( 0.100000E-04)
 Abs. change in max-nonIBS-force   (target) :  0.386931E-02  ( 0.500000E-04)
 
++++++++++++++++++++++++++++++++++++++++++++++++++++++++++++++++++++++++++++++++
| SCF iteration number :   13                                                  +
++++++++++++++++++++++++++++++++++++++++++++++++++++++++++++++++++++++++++++++++
 Total energy                               :    -17642.72443437
 _______________________________________________________________
 Fermi energy                               :        -0.05527282
 Kinetic energy                             :     18575.88848366
 Coulomb energy                             :    -35742.22372694
 Exchange energy                            :      -468.53965196
 Correlation energy                         :        -7.84953913
 No external B-field energy in total energy
 
 DOS at Fermi energy (states/Ha/cell)       :         0.00000000
 
 Electron charges :
     core                                   :       100.00000000
     core leakage                           :         0.00143995
     valence                                :        46.00000000
     interstitial                           :         7.26213672
     charge in muffin-tin spheres :
                  atom     1    Mo          :        39.45320979
                  atom     2    Te          :        49.64232674
                  atom     3    Te          :        49.64232674
     total charge in muffin-tins            :       138.73786328
     total charge                           :       146.00000000
 
 Moments :
     interstitial                 :     0.00000000    -0.00000000    -0.00000000
     moment in muffin-tin spheres :
         atom     1    Mo         :     0.00000000    -0.00000000     0.00000000
         atom     2    Te         :     0.00000000    -0.00000000     0.00000000
         atom     3    Te         :     0.00000000    -0.00000000     0.00000000
     total moment in muffin-tins  :     0.00000000    -0.00000000     0.00000000
     total moment                 :     0.00000000    -0.00000000    -0.00000000
 
 Estimated fundamental gap                  :         0.06611352
        valence-band maximum at    1      0.0000  0.0000  0.0000
     conduction-band minimum at    2      0.5000  0.0000  0.0000
 
 Wall time (seconds)                        :        66.41
 
 RMS change in effective potential (target) :  0.159176E-04  ( 0.100000E-05)
 Absolute change in total energy   (target) :  0.180223E-01  ( 0.100000E-05)
 Charge distance                   (target) :  0.671290E-05  ( 0.100000E-04)
 Abs. change in max-nonIBS-force   (target) :  0.424462E-03  ( 0.500000E-04)
 
++++++++++++++++++++++++++++++++++++++++++++++++++++++++++++++++++++++++++++++++
| SCF iteration number :   14                                                  +
++++++++++++++++++++++++++++++++++++++++++++++++++++++++++++++++++++++++++++++++
 Total energy                               :    -17642.72592076
 _______________________________________________________________
 Fermi energy                               :        -0.05527581
 Kinetic energy                             :     18575.88727976
 Coulomb energy                             :    -35742.22398519
 Exchange energy                            :      -468.53967589
 Correlation energy                         :        -7.84953945
 No external B-field energy in total energy
 
 DOS at Fermi energy (states/Ha/cell)       :         0.00000000
 
 Electron charges :
     core                                   :       100.00000000
     core leakage                           :         0.00143995
     valence                                :        46.00000000
     interstitial                           :         7.26212000
     charge in muffin-tin spheres :
                  atom     1    Mo          :        39.45325335
                  atom     2    Te          :        49.64231332
                  atom     3    Te          :        49.64231332
     total charge in muffin-tins            :       138.73788000
     total charge                           :       146.00000000
 
 Moments :
     interstitial                 :     0.00000000     0.00000000    -0.00000000
     moment in muffin-tin spheres :
         atom     1    Mo         :     0.00000000    -0.00000000     0.00000000
         atom     2    Te         :    -0.00000000    -0.00000000     0.00000000
         atom     3    Te         :    -0.00000000    -0.00000000     0.00000000
     total moment in muffin-tins  :    -0.00000000    -0.00000000     0.00000000
     total moment                 :    -0.00000000     0.00000000    -0.00000000
 
 Estimated fundamental gap                  :         0.06611499
        valence-band maximum at    1      0.0000  0.0000  0.0000
     conduction-band minimum at    2      0.5000  0.0000  0.0000
 
 Wall time (seconds)                        :        71.26
 
 RMS change in effective potential (target) :  0.870805E-05  ( 0.100000E-05)
 Absolute change in total energy   (target) :  0.148639E-02  ( 0.100000E-05)
 Charge distance                   (target) :  0.715918E-06  ( 0.100000E-04)
 Abs. change in max-nonIBS-force   (target) :  0.102644E-03  ( 0.500000E-04)
 
++++++++++++++++++++++++++++++++++++++++++++++++++++++++++++++++++++++++++++++++
| SCF iteration number :   15                                                  +
++++++++++++++++++++++++++++++++++++++++++++++++++++++++++++++++++++++++++++++++
 Total energy                               :    -17642.72515097
 _______________________________________________________________
 Fermi energy                               :        -0.05527719
 Kinetic energy                             :     18575.88673772
 Coulomb energy                             :    -35742.22271666
 Exchange energy                            :      -468.53963273
 Correlation energy                         :        -7.84953930
 No external B-field energy in total energy
 
 DOS at Fermi energy (states/Ha/cell)       :         0.00000000
 
 Electron charges :
     core                                   :       100.00000000
     core leakage                           :         0.00143996
     valence                                :        46.00000000
     interstitial                           :         7.26211158
     charge in muffin-tin spheres :
                  atom     1    Mo          :        39.45328695
                  atom     2    Te          :        49.64230073
                  atom     3    Te          :        49.64230073
     total charge in muffin-tins            :       138.73788842
     total charge                           :       146.00000000
 
 Moments :
     interstitial                 :     0.00000000     0.00000000    -0.00000000
     moment in muffin-tin spheres :
         atom     1    Mo         :     0.00000000    -0.00000000     0.00000000
         atom     2    Te         :     0.00000000    -0.00000000     0.00000000
         atom     3    Te         :     0.00000000    -0.00000000     0.00000000
     total moment in muffin-tins  :     0.00000000    -0.00000000     0.00000000
     total moment                 :     0.00000000    -0.00000000    -0.00000000
 
 Estimated fundamental gap                  :         0.06611358
        valence-band maximum at    1      0.0000  0.0000  0.0000
     conduction-band minimum at    2      0.5000  0.0000  0.0000
 
 Wall time (seconds)                        :        76.14
 
 RMS change in effective potential (target) :  0.342405E-05  ( 0.100000E-05)
 Absolute change in total energy   (target) :  0.769789E-03  ( 0.100000E-05)
 Charge distance                   (target) :  0.871263E-06  ( 0.100000E-04)
 Abs. change in max-nonIBS-force   (target) :  0.234225E-03  ( 0.500000E-04)
 
++++++++++++++++++++++++++++++++++++++++++++++++++++++++++++++++++++++++++++++++
| SCF iteration number :   16                                                  +
++++++++++++++++++++++++++++++++++++++++++++++++++++++++++++++++++++++++++++++++
 Total energy                               :    -17642.72441508
 _______________________________________________________________
 Fermi energy                               :        -0.05527782
 Kinetic energy                             :     18575.88635635
 Coulomb energy                             :    -35742.22162979
 Exchange energy                            :      -468.53960255
 Correlation energy                         :        -7.84953908
 No external B-field energy in total energy
 
 DOS at Fermi energy (states/Ha/cell)       :         0.00000000
 
 Electron charges :
     core                                   :       100.00000000
     core leakage                           :         0.00143997
     valence                                :        46.00000000
     interstitial                           :         7.26209485
     charge in muffin-tin spheres :
                  atom     1    Mo          :        39.45333622
                  atom     2    Te          :        49.64228447
                  atom     3    Te          :        49.64228447
     total charge in muffin-tins            :       138.73790515
     total charge                           :       146.00000000
 
 Moments :
     interstitial                 :     0.00000000    -0.00000000    -0.00000000
     moment in muffin-tin spheres :
         atom     1    Mo         :    -0.00000000    -0.00000000     0.00000000
         atom     2    Te         :    -0.00000000    -0.00000000     0.00000000
         atom     3    Te         :    -0.00000000     0.00000000     0.00000000
     total moment in muffin-tins  :    -0.00000000    -0.00000000     0.00000000
     total moment                 :     0.00000000    -0.00000000    -0.00000000
 
 Estimated fundamental gap                  :         0.06611265
        valence-band maximum at    1      0.0000  0.0000  0.0000
     conduction-band minimum at    2      0.5000  0.0000  0.0000
 
 Wall time (seconds)                        :        81.03
 
 RMS change in effective potential (target) :  0.204563E-05  ( 0.100000E-05)
 Absolute change in total energy   (target) :  0.735896E-03  ( 0.100000E-05)
 Charge distance                   (target) :  0.886313E-06  ( 0.100000E-04)
 Abs. change in max-nonIBS-force   (target) :  0.151029E-03  ( 0.500000E-04)
 
++++++++++++++++++++++++++++++++++++++++++++++++++++++++++++++++++++++++++++++++
| SCF iteration number :   17                                                  +
++++++++++++++++++++++++++++++++++++++++++++++++++++++++++++++++++++++++++++++++
 Total energy                               :    -17642.72395985
 _______________________________________________________________
 Fermi energy                               :        -0.05527764
 Kinetic energy                             :     18575.88693737
 Coulomb energy                             :    -35742.22175588
 Exchange energy                            :      -468.53960236
 Correlation energy                         :        -7.84953898
 No external B-field energy in total energy
 
 DOS at Fermi energy (states/Ha/cell)       :         0.00000000
 
 Electron charges :
     core                                   :       100.00000000
     core leakage                           :         0.00143997
     valence                                :        46.00000000
     interstitial                           :         7.26210173
     charge in muffin-tin spheres :
                  atom     1    Mo          :        39.45331570
                  atom     2    Te          :        49.64229128
                  atom     3    Te          :        49.64229128
     total charge in muffin-tins            :       138.73789827
     total charge                           :       146.00000000
 
 Moments :
     interstitial                 :     0.00000000    -0.00000000     0.00000000
     moment in muffin-tin spheres :
         atom     1    Mo         :    -0.00000000    -0.00000000     0.00000000
         atom     2    Te         :     0.00000000     0.00000000     0.00000000
         atom     3    Te         :     0.00000000    -0.00000000     0.00000000
     total moment in muffin-tins  :     0.00000000    -0.00000000     0.00000000
     total moment                 :     0.00000000    -0.00000000     0.00000000
 
 Estimated fundamental gap                  :         0.06611313
        valence-band maximum at    1      0.0000  0.0000  0.0000
     conduction-band minimum at    2      0.5000  0.0000  0.0000
 
 Wall time (seconds)                        :        85.93
 
 RMS change in effective potential (target) :  0.187052E-06  ( 0.100000E-05)
 Absolute change in total energy   (target) :  0.455230E-03  ( 0.100000E-05)
 Charge distance                   (target) :  0.319733E-06  ( 0.100000E-04)
 Abs. change in max-nonIBS-force   (target) :  0.981690E-04  ( 0.500000E-04)
 
++++++++++++++++++++++++++++++++++++++++++++++++++++++++++++++++++++++++++++++++
| SCF iteration number :   18                                                  +
++++++++++++++++++++++++++++++++++++++++++++++++++++++++++++++++++++++++++++++++
 Total energy                               :    -17642.72408537
 _______________________________________________________________
 Fermi energy                               :        -0.05527761
 Kinetic energy                             :     18575.88684768
 Coulomb energy                             :    -35742.22179033
 Exchange energy                            :      -468.53960371
 Correlation energy                         :        -7.84953902
 No external B-field energy in total energy
 
 DOS at Fermi energy (states/Ha/cell)       :         0.00000000
 
 Electron charges :
     core                                   :       100.00000000
     core leakage                           :         0.00143997
     valence                                :        46.00000000
     interstitial                           :         7.26210185
     charge in muffin-tin spheres :
                  atom     1    Mo          :        39.45331576
                  atom     2    Te          :        49.64229120
                  atom     3    Te          :        49.64229120
     total charge in muffin-tins            :       138.73789815
     total charge                           :       146.00000000
 
 Moments :
     interstitial                 :    -0.00000000     0.00000000    -0.00000000
     moment in muffin-tin spheres :
         atom     1    Mo         :    -0.00000000    -0.00000000     0.00000000
         atom     2    Te         :    -0.00000000     0.00000000     0.00000000
         atom     3    Te         :     0.00000000     0.00000000     0.00000000
     total moment in muffin-tins  :    -0.00000000     0.00000000     0.00000000
     total moment                 :    -0.00000000     0.00000000    -0.00000000
 
 Estimated fundamental gap                  :         0.06611310
        valence-band maximum at    1      0.0000  0.0000  0.0000
     conduction-band minimum at    2      0.5000  0.0000  0.0000
 
 Wall time (seconds)                        :        90.81
 
 RMS change in effective potential (target) :  0.611673E-07  ( 0.100000E-05)
 Absolute change in total energy   (target) :  0.125527E-03  ( 0.100000E-05)
 Charge distance                   (target) :  0.347510E-07  ( 0.100000E-04)
 Abs. change in max-nonIBS-force   (target) :  0.124244E-04  ( 0.500000E-04)
 
++++++++++++++++++++++++++++++++++++++++++++++++++++++++++++++++++++++++++++++++
| SCF iteration number :   19                                                  +
++++++++++++++++++++++++++++++++++++++++++++++++++++++++++++++++++++++++++++++++
 Total energy                               :    -17642.72406632
 _______________________________________________________________
 Fermi energy                               :        -0.05527760
 Kinetic energy                             :     18575.88686721
 Coulomb energy                             :    -35742.22179096
 Exchange energy                            :      -468.53960356
 Correlation energy                         :        -7.84953901
 No external B-field energy in total energy
 
 DOS at Fermi energy (states/Ha/cell)       :         0.00000000
 
 Electron charges :
     core                                   :       100.00000000
     core leakage                           :         0.00143997
     valence                                :        46.00000000
     interstitial                           :         7.26210210
     charge in muffin-tin spheres :
                  atom     1    Mo          :        39.45331519
                  atom     2    Te          :        49.64229136
                  atom     3    Te          :        49.64229136
     total charge in muffin-tins            :       138.73789790
     total charge                           :       146.00000000
 
 Moments :
     interstitial                 :     0.00000000    -0.00000000    -0.00000000
     moment in muffin-tin spheres :
         atom     1    Mo         :     0.00000000     0.00000000     0.00000000
         atom     2    Te         :    -0.00000000     0.00000000     0.00000000
         atom     3    Te         :     0.00000000     0.00000000     0.00000000
     total moment in muffin-tins  :     0.00000000     0.00000000     0.00000000
     total moment                 :     0.00000000     0.00000000    -0.00000000
 
 Estimated fundamental gap                  :         0.06611311
        valence-band maximum at    1      0.0000  0.0000  0.0000
     conduction-band minimum at    2      0.5000  0.0000  0.0000
 
 Wall time (seconds)                        :        95.70
 
 RMS change in effective potential (target) :  0.819503E-07  ( 0.100000E-05)
 Absolute change in total energy   (target) :  0.190517E-04  ( 0.100000E-05)
 Charge distance                   (target) :  0.822542E-08  ( 0.100000E-04)
 Abs. change in max-nonIBS-force   (target) :  0.219321E-05  ( 0.500000E-04)
 
++++++++++++++++++++++++++++++++++++++++++++++++++++++++++++++++++++++++++++++++
| SCF iteration number :   20                                                  +
++++++++++++++++++++++++++++++++++++++++++++++++++++++++++++++++++++++++++++++++
 Total energy                               :    -17642.72406187
 _______________________________________________________________
 Fermi energy                               :        -0.05527760
 Kinetic energy                             :     18575.88687123
 Coulomb energy                             :    -35742.22179058
 Exchange energy                            :      -468.53960351
 Correlation energy                         :        -7.84953901
 No external B-field energy in total energy
 
 DOS at Fermi energy (states/Ha/cell)       :         0.00000000
 
 Electron charges :
     core                                   :       100.00000000
     core leakage                           :         0.00143997
     valence                                :        46.00000000
     interstitial                           :         7.26210214
     charge in muffin-tin spheres :
                  atom     1    Mo          :        39.45331505
                  atom     2    Te          :        49.64229141
                  atom     3    Te          :        49.64229141
     total charge in muffin-tins            :       138.73789786
     total charge                           :       146.00000000
 
 Moments :
     interstitial                 :     0.00000000     0.00000000     0.00000000
     moment in muffin-tin spheres :
         atom     1    Mo         :    -0.00000000    -0.00000000     0.00000000
         atom     2    Te         :     0.00000000     0.00000000     0.00000000
         atom     3    Te         :     0.00000000    -0.00000000     0.00000000
     total moment in muffin-tins  :    -0.00000000    -0.00000000     0.00000000
     total moment                 :     0.00000000     0.00000000     0.00000000
 
 Estimated fundamental gap                  :         0.06611311
        valence-band maximum at    1      0.0000  0.0000  0.0000
     conduction-band minimum at    2      0.5000  0.0000  0.0000
 
 Wall time (seconds)                        :       100.59
 
 RMS change in effective potential (target) :  0.962575E-08  ( 0.100000E-05)
 Absolute change in total energy   (target) :  0.444879E-05  ( 0.100000E-05)
 Charge distance                   (target) :  0.221073E-08  ( 0.100000E-04)
 Abs. change in max-nonIBS-force   (target) :  0.845170E-06  ( 0.500000E-04)
 
++++++++++++++++++++++++++++++++++++++++++++++++++++++++++++++++++++++++++++++++
| SCF iteration number :   21                                                  +
++++++++++++++++++++++++++++++++++++++++++++++++++++++++++++++++++++++++++++++++
 Total energy                               :    -17642.72406512
 _______________________________________________________________
 Fermi energy                               :        -0.05527760
 Kinetic energy                             :     18575.88686861
 Coulomb energy                             :    -35742.22179116
 Exchange energy                            :      -468.53960356
 Correlation energy                         :        -7.84953901
 No external B-field energy in total energy
 
 DOS at Fermi energy (states/Ha/cell)       :         0.00000000
 
 Electron charges :
     core                                   :       100.00000000
     core leakage                           :         0.00143997
     valence                                :        46.00000000
     interstitial                           :         7.26210212
     charge in muffin-tin spheres :
                  atom     1    Mo          :        39.45331514
                  atom     2    Te          :        49.64229137
                  atom     3    Te          :        49.64229137
     total charge in muffin-tins            :       138.73789788
     total charge                           :       146.00000000
 
 Moments :
     interstitial                 :     0.00000000    -0.00000000    -0.00000000
     moment in muffin-tin spheres :
         atom     1    Mo         :    -0.00000000     0.00000000     0.00000000
         atom     2    Te         :     0.00000000    -0.00000000     0.00000000
         atom     3    Te         :     0.00000000    -0.00000000     0.00000000
     total moment in muffin-tins  :     0.00000000     0.00000000     0.00000000
     total moment                 :     0.00000000    -0.00000000    -0.00000000
 
 Estimated fundamental gap                  :         0.06611311
        valence-band maximum at    1      0.0000  0.0000  0.0000
     conduction-band minimum at    2      0.5000  0.0000  0.0000
 
 Wall time (seconds)                        :       105.49
 
 RMS change in effective potential (target) :  0.518948E-07  ( 0.100000E-05)
 Absolute change in total energy   (target) :  0.324405E-05  ( 0.100000E-05)
 Charge distance                   (target) :  0.188240E-08  ( 0.100000E-04)
 Abs. change in max-nonIBS-force   (target) :  0.960399E-06  ( 0.500000E-04)
 
++++++++++++++++++++++++++++++++++++++++++++++++++++++++++++++++++++++++++++++++
| SCF iteration number :   22                                                  +
++++++++++++++++++++++++++++++++++++++++++++++++++++++++++++++++++++++++++++++++
 Total energy                               :    -17642.72406530
 _______________________________________________________________
 Fermi energy                               :        -0.05527760
 Kinetic energy                             :     18575.88686836
 Coulomb energy                             :    -35742.22179108
 Exchange energy                            :      -468.53960356
 Correlation energy                         :        -7.84953901
 No external B-field energy in total energy
 
 DOS at Fermi energy (states/Ha/cell)       :         0.00000000
 
 Electron charges :
     core                                   :       100.00000000
     core leakage                           :         0.00143997
     valence                                :        46.00000000
     interstitial                           :         7.26210210
     charge in muffin-tin spheres :
                  atom     1    Mo          :        39.45331514
                  atom     2    Te          :        49.64229138
                  atom     3    Te          :        49.64229138
     total charge in muffin-tins            :       138.73789790
     total charge                           :       146.00000000
 
 Moments :
     interstitial                 :     0.00000000    -0.00000000     0.00000000
     moment in muffin-tin spheres :
         atom     1    Mo         :    -0.00000000    -0.00000000     0.00000000
         atom     2    Te         :     0.00000000     0.00000000     0.00000000
         atom     3    Te         :     0.00000000    -0.00000000     0.00000000
     total moment in muffin-tins  :     0.00000000    -0.00000000     0.00000000
     total moment                 :     0.00000000    -0.00000000     0.00000000
 
 Estimated fundamental gap                  :         0.06611311
        valence-band maximum at    1      0.0000  0.0000  0.0000
     conduction-band minimum at    2      0.5000  0.0000  0.0000
 
 Wall time (seconds)                        :       110.38
 
 RMS change in effective potential (target) :  0.512383E-08  ( 0.100000E-05)
 Absolute change in total energy   (target) :  0.177388E-06  ( 0.100000E-05)
 Charge distance                   (target) :  0.114469E-08  ( 0.100000E-04)
 Abs. change in max-nonIBS-force   (target) :  0.753818E-06  ( 0.500000E-04)
 
++++++++++++++++++++++++++++++++++++++++++++++++++++++++++++++++++++++++++++++++
| SCF iteration number :   23                                                  +
++++++++++++++++++++++++++++++++++++++++++++++++++++++++++++++++++++++++++++++++
 Total energy                               :    -17642.72406482
 _______________________________________________________________
 Fermi energy                               :        -0.05527760
 Kinetic energy                             :     18575.88686887
 Coulomb energy                             :    -35742.22179112
 Exchange energy                            :      -468.53960356
 Correlation energy                         :        -7.84953901
 No external B-field energy in total energy
 
 DOS at Fermi energy (states/Ha/cell)       :         0.00000000
 
 Electron charges :
     core                                   :       100.00000000
     core leakage                           :         0.00143997
     valence                                :        46.00000000
     interstitial                           :         7.26210210
     charge in muffin-tin spheres :
                  atom     1    Mo          :        39.45331513
                  atom     2    Te          :        49.64229139
                  atom     3    Te          :        49.64229139
     total charge in muffin-tins            :       138.73789790
     total charge                           :       146.00000000
 
 Moments :
     interstitial                 :    -0.00000000     0.00000000     0.00000000
     moment in muffin-tin spheres :
         atom     1    Mo         :    -0.00000000     0.00000000     0.00000000
         atom     2    Te         :     0.00000000     0.00000000     0.00000000
         atom     3    Te         :     0.00000000     0.00000000     0.00000000
     total moment in muffin-tins  :    -0.00000000     0.00000000     0.00000000
     total moment                 :    -0.00000000     0.00000000     0.00000000
 
 Estimated fundamental gap                  :         0.06611311
        valence-band maximum at    1      0.0000  0.0000  0.0000
     conduction-band minimum at    2      0.5000  0.0000  0.0000
 
 Wall time (seconds)                        :       115.27
 
 RMS change in effective potential (target) :  0.401857E-08  ( 0.100000E-05)
 Absolute change in total energy   (target) :  0.474465E-06  ( 0.100000E-05)
 Charge distance                   (target) :  0.285600E-09  ( 0.100000E-04)
 Abs. change in max-nonIBS-force   (target) :  0.955992E-07  ( 0.500000E-04)
                                                                                
++++++++++++++++++++++++++++++++++++++++++++++++++++++++++++++++++++++++++++++++
| Convergency criteria checked for the last 2 iterations                       +
| Convergence targets achieved. Performing final SCF iteration                 +
++++++++++++++++++++++++++++++++++++++++++++++++++++++++++++++++++++++++++++++++
 Total energy                               :    -17642.75800934
 _______________________________________________________________
 Fermi energy                               :        -0.05527760
 Kinetic energy                             :     18575.88686894
 Coulomb energy                             :    -35742.22179118
 Exchange energy                            :      -468.53960356
 Correlation energy                         :        -7.84953901
 No external B-field energy in total energy
 DFT-D2 dispersion correction               :        -0.03394453
 
 DOS at Fermi energy (states/Ha/cell)       :         0.00000000
 
 Electron charges :
     core                                   :       100.00000000
     core leakage                           :         0.00143997
     valence                                :        46.00000000
     interstitial                           :         7.26210210
     charge in muffin-tin spheres :
                  atom     1    Mo          :        39.45331513
                  atom     2    Te          :        49.64229139
                  atom     3    Te          :        49.64229139
     total charge in muffin-tins            :       138.73789790
     total charge                           :       146.00000000
 
 Moments :
     interstitial                 :     0.00000000     0.00000000    -0.00000000
     moment in muffin-tin spheres :
         atom     1    Mo         :    -0.00000000    -0.00000000     0.00000000
         atom     2    Te         :    -0.00000000    -0.00000000     0.00000000
         atom     3    Te         :    -0.00000000     0.00000000     0.00000000
     total moment in muffin-tins  :    -0.00000000    -0.00000000     0.00000000
     total moment                 :     0.00000000     0.00000000    -0.00000000
 
 Estimated fundamental gap                  :         0.06611311
        valence-band maximum at    1      0.0000  0.0000  0.0000
     conduction-band minimum at    2      0.5000  0.0000  0.0000
 
++++++++++++++++++++++++++++++++++++++++++++++++++++++++++++++++++++++++++++++++
| Self-consistent loop stopped                                                 +
++++++++++++++++++++++++++++++++++++++++++++++++++++++++++++++++++++++++++++++++
 STATE.OUT is written
 
--------------------------------------------------------------------------------
| Writing atomic positions and forces                                          -
--------------------------------------------------------------------------------
 
 Atomic positions (lattice) :
 atom     1  Mo  :     0.00000000    0.00000000    0.00000000
 atom     2  Te  :     0.33333333    0.66666667    0.08372867
 atom     3  Te  :     0.33333333    0.66666667    0.91627133
 
 Total atomic forces including IBS (cartesian) :
 atom     1  Mo  :     0.00000000   -0.00000000    0.00000000
 atom     2  Te  :    -0.00000000    0.00000000    0.01109310
 atom     3  Te  :    -0.00000000    0.00000000   -0.01109310
 
 Atomic force components including IBS (cartesian) :
 atom     1  Mo  :    -0.00000000   -0.00000000    0.00000000   HF force
                 :     0.00000000    0.00000000    0.00000000   core correction
                 :    -0.00000000    0.00000000   -0.00000000   IBS correction
                 :    -0.00000000   -0.00000000    0.00000000   DFT-D2 force
 atom     2  Te  :     0.00000000    0.00000000   -0.02092869   HF force
                 :     0.00000000   -0.00000000   -0.22034505   core correction
                 :     0.00000000   -0.00000000    0.25315450   IBS correction
                 :     0.00000000    0.00000000   -0.00078766   DFT-D2 force
 atom     3  Te  :     0.00000000    0.00000000    0.02092869   HF force
                 :     0.00000000   -0.00000000    0.22034505   core correction
                 :     0.00000000   -0.00000000   -0.25315450   IBS correction
                 :     0.00000000    0.00000000    0.00078766   DFT-D2 force
 
********************************************************************************
| Groundstate module stopped                                                   *
********************************************************************************
 
 Total time spent (seconds)                 :        98.56
 
--------------------------------------------------------------------------------
| CAUTION! Warnings have been written in file WARNING.OUT !                    -
--------------------------------------------------------------------------------
 
================================================================================
| EXCITING CARBON stopped                                                      =
================================================================================
