<?xml version="1.0" encoding="ISO-8859-1"?>
<modeling>
 <generator>
  <i name="program" type="string">vasp </i>
  <i name="version" type="string">5.4.1  </i>
  <i name="subversion" type="string">05Feb16 (build Mar 07 2017 09:35:23) complex                          parallel </i>
  <i name="platform" type="string">Linux_rush </i>
  <i name="date" type="string">2022 02 09 </i>
  <i name="time" type="string">17:05:08 </i>
 </generator>
 <incar>
  <i type="string" name="PREC">accurate</i>
  <i type="int" name="ICHARG">    11</i>
  <i type="int" name="IBRION">    -1</i>
  <i name="EDIFF">      0.00000010</i>
  <i type="int" name="NSW">     0</i>
  <i name="ENCUT">    600.00000000</i>
  <i type="logical" name="LREAL"> F  </i>
  <i type="logical" name="LWAVE"> F  </i>
  <i type="logical" name="LCHARG"> F  </i>
  <v type="int" name="KPOINT_BSE">    -1     0     0     0</v>
 </incar>
 <kpoints>
  <generation param="listgenerated">
   <i name="divisions" type="int">      40 </i>
   <v>       0.50000000       0.50000000       0.00000000 </v>
   <v>       0.00000000       0.50000000       0.00000000 </v>
   <v>       0.00000000       0.00000000       0.00000000 </v>
   <v>       0.00000000       0.00000000       0.50000000 </v>
   <v>       0.00000000       0.50000000       0.50000000 </v>
   <v>       0.50000000       0.50000000       0.50000000 </v>
  </generation>
  <varray name="kpointlist" >
   <v>       0.50000000       0.50000000       0.00000000 </v>
   <v>       0.48717949       0.50000000       0.00000000 </v>
   <v>       0.47435897       0.50000000       0.00000000 </v>
   <v>       0.46153846       0.50000000       0.00000000 </v>
   <v>       0.44871795       0.50000000       0.00000000 </v>
   <v>       0.43589744       0.50000000       0.00000000 </v>
   <v>       0.42307692       0.50000000       0.00000000 </v>
   <v>       0.41025641       0.50000000       0.00000000 </v>
   <v>       0.39743590       0.50000000       0.00000000 </v>
   <v>       0.38461538       0.50000000       0.00000000 </v>
   <v>       0.37179487       0.50000000       0.00000000 </v>
   <v>       0.35897436       0.50000000       0.00000000 </v>
   <v>       0.34615385       0.50000000       0.00000000 </v>
   <v>       0.33333333       0.50000000       0.00000000 </v>
   <v>       0.32051282       0.50000000       0.00000000 </v>
   <v>       0.30769231       0.50000000       0.00000000 </v>
   <v>       0.29487179       0.50000000       0.00000000 </v>
   <v>       0.28205128       0.50000000       0.00000000 </v>
   <v>       0.26923077       0.50000000       0.00000000 </v>
   <v>       0.25641026       0.50000000       0.00000000 </v>
   <v>       0.24358974       0.50000000       0.00000000 </v>
   <v>       0.23076923       0.50000000       0.00000000 </v>
   <v>       0.21794872       0.50000000       0.00000000 </v>
   <v>       0.20512821       0.50000000       0.00000000 </v>
   <v>       0.19230769       0.50000000       0.00000000 </v>
   <v>       0.17948718       0.50000000       0.00000000 </v>
   <v>       0.16666667       0.50000000       0.00000000 </v>
   <v>       0.15384615       0.50000000       0.00000000 </v>
   <v>       0.14102564       0.50000000       0.00000000 </v>
   <v>       0.12820513       0.50000000       0.00000000 </v>
   <v>       0.11538462       0.50000000       0.00000000 </v>
   <v>       0.10256410       0.50000000       0.00000000 </v>
   <v>       0.08974359       0.50000000       0.00000000 </v>
   <v>       0.07692308       0.50000000       0.00000000 </v>
   <v>       0.06410256       0.50000000       0.00000000 </v>
   <v>       0.05128205       0.50000000       0.00000000 </v>
   <v>       0.03846154       0.50000000       0.00000000 </v>
   <v>       0.02564103       0.50000000       0.00000000 </v>
   <v>       0.01282051       0.50000000       0.00000000 </v>
   <v>       0.00000000       0.50000000       0.00000000 </v>
   <v>       0.00000000       0.50000000       0.00000000 </v>
   <v>       0.00000000       0.48717949       0.00000000 </v>
   <v>       0.00000000       0.47435897       0.00000000 </v>
   <v>       0.00000000       0.46153846       0.00000000 </v>
   <v>       0.00000000       0.44871795       0.00000000 </v>
   <v>       0.00000000       0.43589744       0.00000000 </v>
   <v>       0.00000000       0.42307692       0.00000000 </v>
   <v>       0.00000000       0.41025641       0.00000000 </v>
   <v>       0.00000000       0.39743590       0.00000000 </v>
   <v>       0.00000000       0.38461538       0.00000000 </v>
   <v>       0.00000000       0.37179487       0.00000000 </v>
   <v>       0.00000000       0.35897436       0.00000000 </v>
   <v>       0.00000000       0.34615385       0.00000000 </v>
   <v>       0.00000000       0.33333333       0.00000000 </v>
   <v>       0.00000000       0.32051282       0.00000000 </v>
   <v>       0.00000000       0.30769231       0.00000000 </v>
   <v>       0.00000000       0.29487179       0.00000000 </v>
   <v>       0.00000000       0.28205128       0.00000000 </v>
   <v>       0.00000000       0.26923077       0.00000000 </v>
   <v>       0.00000000       0.25641026       0.00000000 </v>
   <v>       0.00000000       0.24358974       0.00000000 </v>
   <v>       0.00000000       0.23076923       0.00000000 </v>
   <v>       0.00000000       0.21794872       0.00000000 </v>
   <v>       0.00000000       0.20512821       0.00000000 </v>
   <v>       0.00000000       0.19230769       0.00000000 </v>
   <v>       0.00000000       0.17948718       0.00000000 </v>
   <v>       0.00000000       0.16666667       0.00000000 </v>
   <v>       0.00000000       0.15384615       0.00000000 </v>
   <v>       0.00000000       0.14102564       0.00000000 </v>
   <v>       0.00000000       0.12820513       0.00000000 </v>
   <v>       0.00000000       0.11538462       0.00000000 </v>
   <v>       0.00000000       0.10256410       0.00000000 </v>
   <v>       0.00000000       0.08974359       0.00000000 </v>
   <v>       0.00000000       0.07692308       0.00000000 </v>
   <v>       0.00000000       0.06410256       0.00000000 </v>
   <v>       0.00000000       0.05128205       0.00000000 </v>
   <v>       0.00000000       0.03846154       0.00000000 </v>
   <v>       0.00000000       0.02564103       0.00000000 </v>
   <v>       0.00000000       0.01282051       0.00000000 </v>
   <v>       0.00000000       0.00000000       0.00000000 </v>
   <v>       0.00000000       0.00000000       0.00000000 </v>
   <v>       0.00000000       0.00000000       0.01282051 </v>
   <v>       0.00000000       0.00000000       0.02564103 </v>
   <v>       0.00000000       0.00000000       0.03846154 </v>
   <v>       0.00000000       0.00000000       0.05128205 </v>
   <v>       0.00000000       0.00000000       0.06410256 </v>
   <v>       0.00000000       0.00000000       0.07692308 </v>
   <v>       0.00000000       0.00000000       0.08974359 </v>
   <v>       0.00000000       0.00000000       0.10256410 </v>
   <v>       0.00000000       0.00000000       0.11538462 </v>
   <v>       0.00000000       0.00000000       0.12820513 </v>
   <v>       0.00000000       0.00000000       0.14102564 </v>
   <v>       0.00000000       0.00000000       0.15384615 </v>
   <v>       0.00000000       0.00000000       0.16666667 </v>
   <v>       0.00000000       0.00000000       0.17948718 </v>
   <v>       0.00000000       0.00000000       0.19230769 </v>
   <v>       0.00000000       0.00000000       0.20512821 </v>
   <v>       0.00000000       0.00000000       0.21794872 </v>
   <v>       0.00000000       0.00000000       0.23076923 </v>
   <v>       0.00000000       0.00000000       0.24358974 </v>
   <v>       0.00000000       0.00000000       0.25641026 </v>
   <v>       0.00000000       0.00000000       0.26923077 </v>
   <v>       0.00000000       0.00000000       0.28205128 </v>
   <v>       0.00000000       0.00000000       0.29487179 </v>
   <v>       0.00000000       0.00000000       0.30769231 </v>
   <v>       0.00000000       0.00000000       0.32051282 </v>
   <v>       0.00000000       0.00000000       0.33333333 </v>
   <v>       0.00000000       0.00000000       0.34615385 </v>
   <v>       0.00000000       0.00000000       0.35897436 </v>
   <v>       0.00000000       0.00000000       0.37179487 </v>
   <v>       0.00000000       0.00000000       0.38461538 </v>
   <v>       0.00000000       0.00000000       0.39743590 </v>
   <v>       0.00000000       0.00000000       0.41025641 </v>
   <v>       0.00000000       0.00000000       0.42307692 </v>
   <v>       0.00000000       0.00000000       0.43589744 </v>
   <v>       0.00000000       0.00000000       0.44871795 </v>
   <v>       0.00000000       0.00000000       0.46153846 </v>
   <v>       0.00000000       0.00000000       0.47435897 </v>
   <v>       0.00000000       0.00000000       0.48717949 </v>
   <v>       0.00000000       0.00000000       0.50000000 </v>
   <v>       0.00000000       0.00000000       0.50000000 </v>
   <v>       0.00000000       0.01282051       0.50000000 </v>
   <v>       0.00000000       0.02564103       0.50000000 </v>
   <v>       0.00000000       0.03846154       0.50000000 </v>
   <v>       0.00000000       0.05128205       0.50000000 </v>
   <v>       0.00000000       0.06410256       0.50000000 </v>
   <v>       0.00000000       0.07692308       0.50000000 </v>
   <v>       0.00000000       0.08974359       0.50000000 </v>
   <v>       0.00000000       0.10256410       0.50000000 </v>
   <v>       0.00000000       0.11538462       0.50000000 </v>
   <v>       0.00000000       0.12820513       0.50000000 </v>
   <v>       0.00000000       0.14102564       0.50000000 </v>
   <v>       0.00000000       0.15384615       0.50000000 </v>
   <v>       0.00000000       0.16666667       0.50000000 </v>
   <v>       0.00000000       0.17948718       0.50000000 </v>
   <v>       0.00000000       0.19230769       0.50000000 </v>
   <v>       0.00000000       0.20512821       0.50000000 </v>
   <v>       0.00000000       0.21794872       0.50000000 </v>
   <v>       0.00000000       0.23076923       0.50000000 </v>
   <v>       0.00000000       0.24358974       0.50000000 </v>
   <v>       0.00000000       0.25641026       0.50000000 </v>
   <v>       0.00000000       0.26923077       0.50000000 </v>
   <v>       0.00000000       0.28205128       0.50000000 </v>
   <v>       0.00000000       0.29487179       0.50000000 </v>
   <v>       0.00000000       0.30769231       0.50000000 </v>
   <v>       0.00000000       0.32051282       0.50000000 </v>
   <v>       0.00000000       0.33333333       0.50000000 </v>
   <v>       0.00000000       0.34615385       0.50000000 </v>
   <v>       0.00000000       0.35897436       0.50000000 </v>
   <v>       0.00000000       0.37179487       0.50000000 </v>
   <v>       0.00000000       0.38461538       0.50000000 </v>
   <v>       0.00000000       0.39743590       0.50000000 </v>
   <v>       0.00000000       0.41025641       0.50000000 </v>
   <v>       0.00000000       0.42307692       0.50000000 </v>
   <v>       0.00000000       0.43589744       0.50000000 </v>
   <v>       0.00000000       0.44871795       0.50000000 </v>
   <v>       0.00000000       0.46153846       0.50000000 </v>
   <v>       0.00000000       0.47435897       0.50000000 </v>
   <v>       0.00000000       0.48717949       0.50000000 </v>
   <v>       0.00000000       0.50000000       0.50000000 </v>
   <v>       0.00000000       0.50000000       0.50000000 </v>
   <v>       0.01282051       0.50000000       0.50000000 </v>
   <v>       0.02564103       0.50000000       0.50000000 </v>
   <v>       0.03846154       0.50000000       0.50000000 </v>
   <v>       0.05128205       0.50000000       0.50000000 </v>
   <v>       0.06410256       0.50000000       0.50000000 </v>
   <v>       0.07692308       0.50000000       0.50000000 </v>
   <v>       0.08974359       0.50000000       0.50000000 </v>
   <v>       0.10256410       0.50000000       0.50000000 </v>
   <v>       0.11538462       0.50000000       0.50000000 </v>
   <v>       0.12820513       0.50000000       0.50000000 </v>
   <v>       0.14102564       0.50000000       0.50000000 </v>
   <v>       0.15384615       0.50000000       0.50000000 </v>
   <v>       0.16666667       0.50000000       0.50000000 </v>
   <v>       0.17948718       0.50000000       0.50000000 </v>
   <v>       0.19230769       0.50000000       0.50000000 </v>
   <v>       0.20512821       0.50000000       0.50000000 </v>
   <v>       0.21794872       0.50000000       0.50000000 </v>
   <v>       0.23076923       0.50000000       0.50000000 </v>
   <v>       0.24358974       0.50000000       0.50000000 </v>
   <v>       0.25641026       0.50000000       0.50000000 </v>
   <v>       0.26923077       0.50000000       0.50000000 </v>
   <v>       0.28205128       0.50000000       0.50000000 </v>
   <v>       0.29487179       0.50000000       0.50000000 </v>
   <v>       0.30769231       0.50000000       0.50000000 </v>
   <v>       0.32051282       0.50000000       0.50000000 </v>
   <v>       0.33333333       0.50000000       0.50000000 </v>
   <v>       0.34615385       0.50000000       0.50000000 </v>
   <v>       0.35897436       0.50000000       0.50000000 </v>
   <v>       0.37179487       0.50000000       0.50000000 </v>
   <v>       0.38461538       0.50000000       0.50000000 </v>
   <v>       0.39743590       0.50000000       0.50000000 </v>
   <v>       0.41025641       0.50000000       0.50000000 </v>
   <v>       0.42307692       0.50000000       0.50000000 </v>
   <v>       0.43589744       0.50000000       0.50000000 </v>
   <v>       0.44871795       0.50000000       0.50000000 </v>
   <v>       0.46153846       0.50000000       0.50000000 </v>
   <v>       0.47435897       0.50000000       0.50000000 </v>
   <v>       0.48717949       0.50000000       0.50000000 </v>
   <v>       0.50000000       0.50000000       0.50000000 </v>
  </varray>
  <varray name="weights" >
   <v>       0.00500000 </v>
   <v>       0.00500000 </v>
   <v>       0.00500000 </v>
   <v>       0.00500000 </v>
   <v>       0.00500000 </v>
   <v>       0.00500000 </v>
   <v>       0.00500000 </v>
   <v>       0.00500000 </v>
   <v>       0.00500000 </v>
   <v>       0.00500000 </v>
   <v>       0.00500000 </v>
   <v>       0.00500000 </v>
   <v>       0.00500000 </v>
   <v>       0.00500000 </v>
   <v>       0.00500000 </v>
   <v>       0.00500000 </v>
   <v>       0.00500000 </v>
   <v>       0.00500000 </v>
   <v>       0.00500000 </v>
   <v>       0.00500000 </v>
   <v>       0.00500000 </v>
   <v>       0.00500000 </v>
   <v>       0.00500000 </v>
   <v>       0.00500000 </v>
   <v>       0.00500000 </v>
   <v>       0.00500000 </v>
   <v>       0.00500000 </v>
   <v>       0.00500000 </v>
   <v>       0.00500000 </v>
   <v>       0.00500000 </v>
   <v>       0.00500000 </v>
   <v>       0.00500000 </v>
   <v>       0.00500000 </v>
   <v>       0.00500000 </v>
   <v>       0.00500000 </v>
   <v>       0.00500000 </v>
   <v>       0.00500000 </v>
   <v>       0.00500000 </v>
   <v>       0.00500000 </v>
   <v>       0.00500000 </v>
   <v>       0.00500000 </v>
   <v>       0.00500000 </v>
   <v>       0.00500000 </v>
   <v>       0.00500000 </v>
   <v>       0.00500000 </v>
   <v>       0.00500000 </v>
   <v>       0.00500000 </v>
   <v>       0.00500000 </v>
   <v>       0.00500000 </v>
   <v>       0.00500000 </v>
   <v>       0.00500000 </v>
   <v>       0.00500000 </v>
   <v>       0.00500000 </v>
   <v>       0.00500000 </v>
   <v>       0.00500000 </v>
   <v>       0.00500000 </v>
   <v>       0.00500000 </v>
   <v>       0.00500000 </v>
   <v>       0.00500000 </v>
   <v>       0.00500000 </v>
   <v>       0.00500000 </v>
   <v>       0.00500000 </v>
   <v>       0.00500000 </v>
   <v>       0.00500000 </v>
   <v>       0.00500000 </v>
   <v>       0.00500000 </v>
   <v>       0.00500000 </v>
   <v>       0.00500000 </v>
   <v>       0.00500000 </v>
   <v>       0.00500000 </v>
   <v>       0.00500000 </v>
   <v>       0.00500000 </v>
   <v>       0.00500000 </v>
   <v>       0.00500000 </v>
   <v>       0.00500000 </v>
   <v>       0.00500000 </v>
   <v>       0.00500000 </v>
   <v>       0.00500000 </v>
   <v>       0.00500000 </v>
   <v>       0.00500000 </v>
   <v>       0.00500000 </v>
   <v>       0.00500000 </v>
   <v>       0.00500000 </v>
   <v>       0.00500000 </v>
   <v>       0.00500000 </v>
   <v>       0.00500000 </v>
   <v>       0.00500000 </v>
   <v>       0.00500000 </v>
   <v>       0.00500000 </v>
   <v>       0.00500000 </v>
   <v>       0.00500000 </v>
   <v>       0.00500000 </v>
   <v>       0.00500000 </v>
   <v>       0.00500000 </v>
   <v>       0.00500000 </v>
   <v>       0.00500000 </v>
   <v>       0.00500000 </v>
   <v>       0.00500000 </v>
   <v>       0.00500000 </v>
   <v>       0.00500000 </v>
   <v>       0.00500000 </v>
   <v>       0.00500000 </v>
   <v>       0.00500000 </v>
   <v>       0.00500000 </v>
   <v>       0.00500000 </v>
   <v>       0.00500000 </v>
   <v>       0.00500000 </v>
   <v>       0.00500000 </v>
   <v>       0.00500000 </v>
   <v>       0.00500000 </v>
   <v>       0.00500000 </v>
   <v>       0.00500000 </v>
   <v>       0.00500000 </v>
   <v>       0.00500000 </v>
   <v>       0.00500000 </v>
   <v>       0.00500000 </v>
   <v>       0.00500000 </v>
   <v>       0.00500000 </v>
   <v>       0.00500000 </v>
   <v>       0.00500000 </v>
   <v>       0.00500000 </v>
   <v>       0.00500000 </v>
   <v>       0.00500000 </v>
   <v>       0.00500000 </v>
   <v>       0.00500000 </v>
   <v>       0.00500000 </v>
   <v>       0.00500000 </v>
   <v>       0.00500000 </v>
   <v>       0.00500000 </v>
   <v>       0.00500000 </v>
   <v>       0.00500000 </v>
   <v>       0.00500000 </v>
   <v>       0.00500000 </v>
   <v>       0.00500000 </v>
   <v>       0.00500000 </v>
   <v>       0.00500000 </v>
   <v>       0.00500000 </v>
   <v>       0.00500000 </v>
   <v>       0.00500000 </v>
   <v>       0.00500000 </v>
   <v>       0.00500000 </v>
   <v>       0.00500000 </v>
   <v>       0.00500000 </v>
   <v>       0.00500000 </v>
   <v>       0.00500000 </v>
   <v>       0.00500000 </v>
   <v>       0.00500000 </v>
   <v>       0.00500000 </v>
   <v>       0.00500000 </v>
   <v>       0.00500000 </v>
   <v>       0.00500000 </v>
   <v>       0.00500000 </v>
   <v>       0.00500000 </v>
   <v>       0.00500000 </v>
   <v>       0.00500000 </v>
   <v>       0.00500000 </v>
   <v>       0.00500000 </v>
   <v>       0.00500000 </v>
   <v>       0.00500000 </v>
   <v>       0.00500000 </v>
   <v>       0.00500000 </v>
   <v>       0.00500000 </v>
   <v>       0.00500000 </v>
   <v>       0.00500000 </v>
   <v>       0.00500000 </v>
   <v>       0.00500000 </v>
   <v>       0.00500000 </v>
   <v>       0.00500000 </v>
   <v>       0.00500000 </v>
   <v>       0.00500000 </v>
   <v>       0.00500000 </v>
   <v>       0.00500000 </v>
   <v>       0.00500000 </v>
   <v>       0.00500000 </v>
   <v>       0.00500000 </v>
   <v>       0.00500000 </v>
   <v>       0.00500000 </v>
   <v>       0.00500000 </v>
   <v>       0.00500000 </v>
   <v>       0.00500000 </v>
   <v>       0.00500000 </v>
   <v>       0.00500000 </v>
   <v>       0.00500000 </v>
   <v>       0.00500000 </v>
   <v>       0.00500000 </v>
   <v>       0.00500000 </v>
   <v>       0.00500000 </v>
   <v>       0.00500000 </v>
   <v>       0.00500000 </v>
   <v>       0.00500000 </v>
   <v>       0.00500000 </v>
   <v>       0.00500000 </v>
   <v>       0.00500000 </v>
   <v>       0.00500000 </v>
   <v>       0.00500000 </v>
   <v>       0.00500000 </v>
   <v>       0.00500000 </v>
   <v>       0.00500000 </v>
   <v>       0.00500000 </v>
   <v>       0.00500000 </v>
  </varray>
 </kpoints>
 <parameters>
  <separator name="general" >
   <i type="string" name="SYSTEM">unknown system</i>
   <i type="logical" name="LCOMPAT"> F  </i>
  </separator>
  <separator name="electronic" >
   <i type="string" name="PREC">accura</i>
   <i name="ENMAX">    600.00000000</i>
   <i name="ENAUG">    644.87300000</i>
   <i name="EDIFF">      0.00000010</i>
   <i type="int" name="IALGO">    38</i>
   <i type="int" name="IWAVPR">    10</i>
   <i type="int" name="NBANDS">    32</i>
   <i name="NELECT">     48.00000000</i>
   <i type="int" name="TURBO">     0</i>
   <i type="int" name="IRESTART">     0</i>
   <i type="int" name="NREBOOT">     0</i>
   <i type="int" name="NMIN">     0</i>
   <i name="EREF">      0.00000000</i>
   <separator name="electronic smearing" >
    <i type="int" name="ISMEAR">     1</i>
    <i name="SIGMA">      0.20000000</i>
    <i name="KSPACING">      0.50000000</i>
    <i type="logical" name="KGAMMA"> T  </i>
   </separator>
   <separator name="electronic projectors" >
    <i type="logical" name="LREAL"> F  </i>
    <v name="ROPT">      0.00000000</v>
    <i type="int" name="LMAXPAW">  -100</i>
    <i type="int" name="LMAXMIX">     2</i>
    <i type="logical" name="NLSPLINE"> F  </i>
   </separator>
   <separator name="electronic startup" >
    <i type="int" name="ISTART">     0</i>
    <i type="int" name="ICHARG">    11</i>
    <i type="int" name="INIWAV">     1</i>
   </separator>
   <separator name="electronic spin" >
    <i type="int" name="ISPIN">     1</i>
    <i type="logical" name="LNONCOLLINEAR"> F  </i>
    <v name="MAGMOM">      1.00000000      1.00000000      1.00000000      1.00000000      1.00000000      1.00000000      1.00000000      1.00000000      1.00000000      1.00000000      1.00000000      1.00000000</v>
    <i name="NUPDOWN">     -1.00000000</i>
    <i type="logical" name="LSORBIT"> F  </i>
    <v name="SAXIS">      0.00000000      0.00000000      1.00000000</v>
    <i type="logical" name="LSPIRAL"> F  </i>
    <v name="QSPIRAL">      0.00000000      0.00000000      0.00000000</v>
    <i type="logical" name="LZEROZ"> F  </i>
   </separator>
   <separator name="electronic exchange-correlation" >
    <i type="logical" name="LASPH"> F  </i>
    <i type="logical" name="LMETAGGA"> F  </i>
   </separator>
   <separator name="electronic convergence" >
    <i type="int" name="NELM">    60</i>
    <i type="int" name="NELMDL">     0</i>
    <i type="int" name="NELMIN">     2</i>
    <i name="ENINI">    600.00000000</i>
    <separator name="electronic convergence detail" >
     <i type="logical" name="LDIAG"> T  </i>
     <i type="logical" name="LSUBROT"> F  </i>
     <i name="WEIMIN">      0.00000000</i>
     <i name="EBREAK">      0.00000000</i>
     <i name="DEPER">      0.30000000</i>
     <i type="int" name="NRMM">     4</i>
     <i name="TIME">      0.40000000</i>
    </separator>
   </separator>
   <separator name="electronic mixer" >
    <i name="AMIX">      0.40000000</i>
    <i name="BMIX">      1.00000000</i>
    <i name="AMIN">      0.10000000</i>
    <i name="AMIX_MAG">      1.60000000</i>
    <i name="BMIX_MAG">      1.00000000</i>
    <separator name="electronic mixer details" >
     <i type="int" name="IMIX">     4</i>
     <i type="logical" name="MIXFIRST"> F  </i>
     <i type="int" name="MAXMIX">   -45</i>
     <i name="WC">    100.00000000</i>
     <i type="int" name="INIMIX">     1</i>
     <i type="int" name="MIXPRE">     1</i>
     <i type="int" name="MREMOVE">     5</i>
    </separator>
   </separator>
   <separator name="electronic dipolcorrection" >
    <i type="logical" name="LDIPOL"> F  </i>
    <i type="logical" name="LMONO"> F  </i>
    <i type="int" name="IDIPOL">     0</i>
    <i name="EPSILON">      1.00000000</i>
    <v name="DIPOL">   -100.00000000   -100.00000000   -100.00000000</v>
    <i name="EFIELD">      0.00000000</i>
   </separator>
  </separator>
  <separator name="grids" >
   <i type="int" name="NGX">    54</i>
   <i type="int" name="NGY">    54</i>
   <i type="int" name="NGZ">    18</i>
   <i type="int" name="NGXF">   108</i>
   <i type="int" name="NGYF">   108</i>
   <i type="int" name="NGZF">    36</i>
   <i type="logical" name="ADDGRID"> F  </i>
  </separator>
  <separator name="ionic" >
   <i type="int" name="NSW">     0</i>
   <i type="int" name="IBRION">    -1</i>
   <i type="int" name="ISIF">     2</i>
   <i name="PSTRESS">      0.00000000</i>
   <i name="EDIFFG">      0.00000100</i>
   <i type="int" name="NFREE">     0</i>
   <i name="POTIM">      0.50000000</i>
   <i name="SMASS">     -3.00000000</i>
   <i name="SCALEE">      1.00000000</i>
  </separator>
  <separator name="ionic md" >
   <i name="TEBEG">      0.00010000</i>
   <i name="TEEND">      0.00010000</i>
   <i type="int" name="NBLOCK">     1</i>
   <i type="int" name="KBLOCK">     1</i>
   <i type="int" name="NPACO">   256</i>
   <i name="APACO">     16.00000000</i>
  </separator>
  <separator name="symmetry" >
   <i type="int" name="ISYM">     2</i>
   <i name="SYMPREC">      0.00001000</i>
  </separator>
  <separator name="dos" >
   <i type="logical" name="LORBIT"> F  </i>
   <v name="RWIGS">     -1.00000000</v>
   <i type="int" name="NEDOS">   301</i>
   <i name="EMIN">     10.00000000</i>
   <i name="EMAX">    -10.00000000</i>
   <i name="EFERMI">      0.00000000</i>
  </separator>
  <separator name="writing" >
   <i type="int" name="NWRITE">     2</i>
   <i type="logical" name="LWAVE"> F  </i>
   <i type="logical" name="LCHARG"> F  </i>
   <i type="logical" name="LPARD"> F  </i>
   <i type="logical" name="LVTOT"> F  </i>
   <i type="logical" name="LVHAR"> F  </i>
   <i type="logical" name="LELF"> F  </i>
   <i type="logical" name="LOPTICS"> F  </i>
   <v name="STM">      0.00000000      0.00000000      0.00000000      0.00000000      0.00000000      0.00000000      0.00000000</v>
  </separator>
  <separator name="performance" >
   <i type="int" name="NPAR">     4</i>
   <i type="int" name="NSIM">     4</i>
   <i type="int" name="NBLK">    -1</i>
   <i type="logical" name="LPLANE"> T  </i>
   <i type="logical" name="LSCALAPACK"> F  </i>
   <i type="logical" name="LSCAAWARE"> F  </i>
   <i type="logical" name="LSCALU"> F  </i>
   <i type="logical" name="LASYNC"> F  </i>
   <i type="logical" name="LORBITALREAL"> F  </i>
  </separator>
  <separator name="miscellaneous" >
   <i type="int" name="IDIOT">     3</i>
   <i type="logical" name="LMUSIC"> F  </i>
   <v name="POMASS">     12.01100000</v>
   <v name="DARWINR">      0.00000000</v>
   <v name="DARWINV">      1.00000000</v>
   <i type="logical" name="LCORR"> T  </i>
  </separator>
  <i type="logical" name="GGA_COMPAT"> T  </i>
  <i type="logical" name="LBERRY"> F  </i>
  <i type="int" name="ICORELEVEL">     0</i>
  <i type="logical" name="LDAU"> F  </i>
  <i type="int" name="I_CONSTRAINED_M">     0</i>
  <separator name="electronic exchange-correlation" >
   <i type="string" name="GGA">--</i>
   <i type="int" name="VOSKOWN">     0</i>
   <i type="logical" name="LHFCALC"> F  </i>
   <i type="string" name="PRECFOCK"></i>
   <i type="logical" name="LSYMGRAD"> F  </i>
   <i type="logical" name="LHFONE"> F  </i>
   <i type="logical" name="LRHFCALC"> F  </i>
   <i type="logical" name="LTHOMAS"> F  </i>
   <i type="logical" name="LMODELHF"> F  </i>
   <i name="ENCUT4O">     -1.00000000</i>
   <i type="int" name="EXXOEP">     0</i>
   <i type="int" name="FOURORBIT">     0</i>
   <i name="AEXX">      0.00000000</i>
   <i name="HFALPHA">      0.00000000</i>
   <i name="MCALPHA">      0.00000000</i>
   <i name="ALDAX">      1.00000000</i>
   <i name="AGGAX">      1.00000000</i>
   <i name="ALDAC">      1.00000000</i>
   <i name="AGGAC">      1.00000000</i>
   <i type="int" name="NKREDX">     1</i>
   <i type="int" name="NKREDY">     1</i>
   <i type="int" name="NKREDZ">     1</i>
   <i type="logical" name="SHIFTRED"> F  </i>
   <i type="logical" name="ODDONLY"> F  </i>
   <i type="logical" name="EVENONLY"> F  </i>
   <i type="int" name="LMAXFOCK">     0</i>
   <i type="int" name="NMAXFOCKAE">     0</i>
   <i type="logical" name="LFOCKAEDFT"> F  </i>
   <i name="HFSCREEN">      0.00000000</i>
   <i name="HFSCREENC">      0.00000000</i>
   <i type="int" name="NBANDSGWLOW">     0</i>
  </separator>
  <separator name="vdW DFT" >
   <i type="logical" name="LUSE_VDW"> F  </i>
   <i name="Zab_VDW">     -0.84910000</i>
   <i name="PARAM1">      0.12340000</i>
   <i name="PARAM2">      1.00000000</i>
   <i name="PARAM3">      0.00000000</i>
  </separator>
  <separator name="model GW" >
   <i type="int" name="MODEL_GW">     0</i>
   <i name="MODEL_EPS0">      2.75526857</i>
   <i name="MODEL_ALPHA">      1.00000000</i>
  </separator>
  <separator name="linear response parameters" >
   <i type="logical" name="LEPSILON"> F  </i>
   <i type="logical" name="LRPA"> F  </i>
   <i type="logical" name="LNABLA"> F  </i>
   <i type="logical" name="LVEL"> F  </i>
   <i type="int" name="KINTER">     0</i>
   <i name="CSHIFT">      0.10000000</i>
   <i name="OMEGAMAX">     -1.00000000</i>
   <i name="DEG_THRESHOLD">      0.00200000</i>
  </separator>
  <separator name="orbital magnetization" >
   <i type="logical" name="NUCIND"> F  </i>
   <v name="MAGPOS">      0.00000000      0.00000000      0.00000000</v>
   <i type="logical" name="LNICSALL"> T  </i>
   <i type="logical" name="ORBITALMAG"> F  </i>
   <i type="logical" name="LMAGBLOCH"> F  </i>
   <i type="logical" name="LCHIMAG"> F  </i>
   <i type="logical" name="LGAUGE"> T  </i>
   <i type="int" name="MAGATOM">     0</i>
   <v name="MAGDIPOL">      0.00000000      0.00000000      0.00000000</v>
   <v name="AVECCONST">      0.00000000      0.00000000      0.00000000</v>
  </separator>
  <separator name="response functions" >
   <i type="logical" name="LADDER"> F  </i>
   <i type="logical" name="LFXC"> F  </i>
   <i type="logical" name="LHARTREE"> T  </i>
   <i type="int" name="IBSE">     0</i>
   <v type="int" name="KPOINT">    -1     0     0     0</v>
   <i type="logical" name="LTCTE"> F  </i>
   <i type="logical" name="LTETE"> F  </i>
   <i type="logical" name="LTRIPLET"> F  </i>
   <i type="logical" name="LFXCEPS"> F  </i>
   <i type="logical" name="LFXHEG"> F  </i>
   <i type="int" name="NATURALO">     0</i>
   <i type="logical" name="L2ORDER"> F  </i>
   <i type="logical" name="LUSEW"> F  </i>
   <i name="ENCUTGW">     -2.00000000</i>
   <i name="ENCUTGWSOFT">     -2.00000000</i>
   <i name="ENCUTLF">     -1.00000000</i>
   <i type="int" name="LMAXMP2">    -1</i>
   <i name="SCISSOR">      0.00000000</i>
   <i type="int" name="NOMEGA">     0</i>
   <i type="int" name="NOMEGAR">     0</i>
   <i type="int" name="NBANDSGW">    -1</i>
   <i type="int" name="NBANDSO">    -1</i>
   <i type="int" name="NBANDSV">    -1</i>
   <i type="int" name="NELM">     1</i>
   <i type="int" name="NELMHF">     1</i>
   <i type="int" name="DIM">     3</i>
   <i type="int" name="ANTIRES">     0</i>
   <i name="OMEGAMAX">    -30.00000000</i>
   <i name="OMEGAMIN">    -30.00000000</i>
   <i name="OMEGATL">   -200.00000000</i>
   <i type="int" name="OMEGAGRID">     0</i>
   <i name="CSHIFT">     -0.10000000</i>
   <i type="logical" name="SELFENERGY"> F  </i>
   <i type="logical" name="LSPECTRAL"> F  </i>
   <i type="logical" name="LSPECTRALGW"> F  </i>
   <i type="logical" name="LSINGLES"> F  </i>
   <i type="logical" name="LFERMIGW"> F  </i>
   <i type="logical" name="ODDONLYGW"> F  </i>
   <i type="logical" name="EVENONLYGW"> F  </i>
   <i type="int" name="NKREDLFX">     1</i>
   <i type="int" name="NKREDLFY">     1</i>
   <i type="int" name="NKREDLFZ">     1</i>
   <i type="int" name="MAXMEM">  1800</i>
   <i type="int" name="TELESCOPE">     0</i>
   <i type="int" name="TAUPAR">     1</i>
   <i type="int" name="OMEGAPAR">    -1</i>
   <i name="LAMBDA">      1.00000000</i>
  </separator>
  <separator name="External order field" >
   <i name="OFIELD_KAPPA">      0.00000000</i>
   <v name="OFIELD_K">      0.00000000      0.00000000      0.00000000</v>
   <i name="OFIELD_Q6_NEAR">      0.00000000</i>
   <i name="OFIELD_Q6_FAR">      0.00000000</i>
   <i name="OFIELD_A">      0.00000000</i>
  </separator>
 </parameters>
 <atominfo>
  <atoms>      12 </atoms>
  <types>       1 </types>
  <array name="atoms" >
   <dimension dim="1">ion</dimension>
   <field type="string">element</field>
   <field type="int">atomtype</field>
   <set>
    <rc><c>C </c><c>   1</c></rc>
    <rc><c>C </c><c>   1</c></rc>
    <rc><c>C </c><c>   1</c></rc>
    <rc><c>C </c><c>   1</c></rc>
    <rc><c>C </c><c>   1</c></rc>
    <rc><c>C </c><c>   1</c></rc>
    <rc><c>C </c><c>   1</c></rc>
    <rc><c>C </c><c>   1</c></rc>
    <rc><c>C </c><c>   1</c></rc>
    <rc><c>C </c><c>   1</c></rc>
    <rc><c>C </c><c>   1</c></rc>
    <rc><c>C </c><c>   1</c></rc>
   </set>
  </array>
  <array name="atomtypes" >
   <dimension dim="1">type</dimension>
   <field type="int">atomspertype</field>
   <field type="string">element</field>
   <field>mass</field>
   <field>valence</field>
   <field type="string">pseudopotential</field>
   <set>
    <rc><c>  12</c><c>C </c><c>     12.01100000</c><c>      4.00000000</c><c>  PAW_PBE C 08Apr2002                   </c></rc>
   </set>
  </array>
 </atominfo>
 <structure name="initialpos" >
  <crystal>
   <varray name="basis" >
    <v>       1.94102604      -6.33829199       0.00000000 </v>
    <v>       1.94102604       6.33829199       0.00000000 </v>
    <v>       0.00000000       0.00000000       2.23954779 </v>
   </varray>
   <i name="volume">     55.10537143 </i>
   <varray name="rec_basis" >
    <v>       0.25759572      -0.07888561       0.00000000 </v>
    <v>       0.25759572       0.07888561       0.00000000 </v>
    <v>       0.00000000       0.00000000       0.44651871 </v>
   </varray>
  </crystal>
  <varray name="positions" >
   <v>       0.71298502       0.92696336       0.00000000 </v>
   <v>       0.28701498       0.07303664       0.00000000 </v>
   <v>       0.92696336       0.71298502       0.00000000 </v>
   <v>       0.07303664       0.28701498       0.00000000 </v>
   <v>       0.25799977       0.37003235       0.50000000 </v>
   <v>       0.74200023       0.62996765       0.50000000 </v>
   <v>       0.62996765       0.74200023       0.50000000 </v>
   <v>       0.37003235       0.25799977       0.50000000 </v>
   <v>       0.12575298       0.53663564       0.00000000 </v>
   <v>       0.87424702       0.46336436       0.00000000 </v>
   <v>       0.53663564       0.12575298       0.00000000 </v>
   <v>       0.46336436       0.87424702       0.00000000 </v>
  </varray>
 </structure>
 <calculation>
  <scstep>
   <time name="dav">    2.22    2.23</time>
   <time name="total">    2.24    2.26</time>
   <energy>
    <i name="alphaZ">    214.66377592 </i>
    <i name="ewald">  -2158.73981963 </i>
    <i name="hartreedc">   -198.14863311 </i>
    <i name="XCdc">    180.60108075 </i>
    <i name="pawpsdc">   7280.74032149 </i>
    <i name="pawaedc">  -7289.79548265 </i>
    <i name="eentropy">      0.00023834 </i>
    <i name="bandstr">    396.96988523 </i>
    <i name="atom">   1765.80345310 </i>
    <i name="e_fr_energy">    192.09481943 </i>
    <i name="e_wo_entrp">    192.09458110 </i>
    <i name="e_0_energy">    192.09473999 </i>
   </energy>
  </scstep>
  <scstep>
   <time name="dav">    2.77    2.78</time>
   <time name="total">    2.78    2.79</time>
   <energy>
    <i name="e_fr_energy">    -84.28565889 </i>
    <i name="e_wo_entrp">    -84.28639247 </i>
    <i name="e_0_energy">    -84.28590341 </i>
   </energy>
  </scstep>
  <scstep>
   <time name="dav">    2.84    2.85</time>
   <time name="total">    2.85    2.87</time>
   <energy>
    <i name="e_fr_energy">    -94.29520343 </i>
    <i name="e_wo_entrp">    -94.29468170 </i>
    <i name="e_0_energy">    -94.29502952 </i>
   </energy>
  </scstep>
  <scstep>
   <time name="dav">    2.81    2.82</time>
   <time name="total">    2.81    2.85</time>
   <energy>
    <i name="e_fr_energy">    -94.39411827 </i>
    <i name="e_wo_entrp">    -94.39371402 </i>
    <i name="e_0_energy">    -94.39398352 </i>
   </energy>
  </scstep>
  <scstep>
   <time name="dav">    2.84    2.84</time>
   <time name="total">    2.84    2.86</time>
   <energy>
    <i name="e_fr_energy">    -94.39528871 </i>
    <i name="e_wo_entrp">    -94.39488868 </i>
    <i name="e_0_energy">    -94.39515537 </i>
   </energy>
  </scstep>
  <scstep>
   <time name="dav">    2.83    2.83</time>
   <time name="total">    2.83    2.85</time>
   <energy>
    <i name="e_fr_energy">    -94.39531157 </i>
    <i name="e_wo_entrp">    -94.39491165 </i>
    <i name="e_0_energy">    -94.39517826 </i>
   </energy>
  </scstep>
  <scstep>
   <time name="dav">    2.85    2.86</time>
   <time name="total">    2.86    2.87</time>
   <energy>
    <i name="e_fr_energy">    -94.39531203 </i>
    <i name="e_wo_entrp">    -94.39491212 </i>
    <i name="e_0_energy">    -94.39517873 </i>
   </energy>
  </scstep>
  <scstep>
   <time name="dav">    2.47    2.48</time>
   <time name="total">    2.48    2.50</time>
   <energy>
    <i name="alphaZ">    214.66377592 </i>
    <i name="ewald">  -2158.73981963 </i>
    <i name="hartreedc">   -198.14863311 </i>
    <i name="XCdc">    180.60108075 </i>
    <i name="pawpsdc">   7280.74032149 </i>
    <i name="pawaedc">  -7289.79548265 </i>
    <i name="eentropy">     -0.00039991 </i>
    <i name="bandstr">    110.48039200 </i>
    <i name="atom">   1765.80345310 </i>
    <i name="e_fr_energy">    -94.39531204 </i>
    <i name="e_wo_entrp">    -94.39491213 </i>
    <i name="e_0_energy">    -94.39517874 </i>
   </energy>
  </scstep>
  <structure>
   <crystal>
    <varray name="basis" >
     <v>       1.94102604      -6.33829199       0.00000000 </v>
     <v>       1.94102604       6.33829199       0.00000000 </v>
     <v>       0.00000000       0.00000000       2.23954779 </v>
    </varray>
    <i name="volume">     55.10537143 </i>
    <varray name="rec_basis" >
     <v>       0.25759572      -0.07888561       0.00000000 </v>
     <v>       0.25759572       0.07888561       0.00000000 </v>
     <v>       0.00000000       0.00000000       0.44651871 </v>
    </varray>
   </crystal>
   <varray name="positions" >
    <v>       0.71298502       0.92696336       0.00000000 </v>
    <v>       0.28701498       0.07303664       0.00000000 </v>
    <v>       0.92696336       0.71298502       0.00000000 </v>
    <v>       0.07303664       0.28701498       0.00000000 </v>
    <v>       0.25799977       0.37003235       0.50000000 </v>
    <v>       0.74200023       0.62996765       0.50000000 </v>
    <v>       0.62996765       0.74200023       0.50000000 </v>
    <v>       0.37003235       0.25799977       0.50000000 </v>
    <v>       0.12575298       0.53663564       0.00000000 </v>
    <v>       0.87424702       0.46336436       0.00000000 </v>
    <v>       0.53663564       0.12575298       0.00000000 </v>
    <v>       0.46336436       0.87424702       0.00000000 </v>
   </varray>
  </structure>
  <varray name="forces" >
   <v>      -0.76196452      -0.28126274       0.00000000 </v>
   <v>       0.76196452       0.28126274      -0.00000000 </v>
   <v>      -0.76196452       0.28126274       0.00000000 </v>
   <v>       0.76196452      -0.28126274      -0.00000000 </v>
   <v>      -0.91531239       0.27273070       0.00000000 </v>
   <v>       0.91531239      -0.27273070       0.00000000 </v>
   <v>       0.91531239       0.27273070       0.00000000 </v>
   <v>      -0.91531239      -0.27273070       0.00000000 </v>
   <v>      -0.71530791      -1.06474161       0.00000000 </v>
   <v>       0.71530791       1.06474161       0.00000000 </v>
   <v>      -0.71530791       1.06474161       0.00000000 </v>
   <v>       0.71530791      -1.06474161       0.00000000 </v>
  </varray>
  <varray name="stress" >
   <v>    2044.52972233       0.00000000       0.00000000 </v>
   <v>       0.00000000    2103.65601536       0.00000000 </v>
   <v>       0.00000000       0.00000000    2014.98461919 </v>
  </varray>
  <energy>
   <i name="e_fr_energy">    -94.39531204 </i>
   <i name="e_wo_entrp">    -94.39517874 </i>
   <i name="e_0_energy">     -0.00039991 </i>
  </energy>
  <time name="totalsc">   23.77   23.97</time>
  <eigenvalues>
   <array>
    <dimension dim="1">band</dimension>
    <dimension dim="2">kpoint</dimension>
    <dimension dim="3">spin</dimension>
    <field>eigene</field>
    <field>occ</field>
    <set>
     <set comment="spin 1">
      <set comment="kpoint 1">
       <r>  -11.8996    1.0000 </r>
       <r>  -10.7923    1.0000 </r>
       <r>   -5.8380    1.0000 </r>
       <r>   -5.6010    1.0000 </r>
       <r>   -5.1056    1.0000 </r>
       <r>   -3.8284    1.0000 </r>
       <r>   -3.2050    1.0000 </r>
       <r>   -1.5353    1.0000 </r>
       <r>   -1.4852    1.0000 </r>
       <r>    0.0409    1.0000 </r>
       <r>    3.5451    1.0000 </r>
       <r>    4.0131    1.0000 </r>
       <r>    4.9321    1.0000 </r>
       <r>    5.3603    1.0000 </r>
       <r>    6.1630    1.0000 </r>
       <r>    6.2980    1.0000 </r>
       <r>    7.6559    1.0000 </r>
       <r>    8.5915    1.0000 </r>
       <r>   10.3811    1.0000 </r>
       <r>   11.7665    1.0000 </r>
       <r>   11.9465    1.0000 </r>
       <r>   12.0254    1.0000 </r>
       <r>   12.5791    1.0000 </r>
       <r>   16.7231   -0.0000 </r>
       <r>   17.6294   -0.0000 </r>
       <r>   19.2427    0.0000 </r>
       <r>   20.1329    0.0000 </r>
       <r>   20.1651    0.0000 </r>
       <r>   20.6112    0.0000 </r>
       <r>   20.7749    0.0000 </r>
       <r>   21.1269    0.0000 </r>
       <r>   23.8619    0.0000 </r>
      </set>
      <set comment="kpoint 2">
       <r>  -11.8986    1.0000 </r>
       <r>  -10.7907    1.0000 </r>
       <r>   -5.8452    1.0000 </r>
       <r>   -5.5998    1.0000 </r>
       <r>   -5.1194    1.0000 </r>
       <r>   -3.8050    1.0000 </r>
       <r>   -3.2235    1.0000 </r>
       <r>   -1.5158    1.0000 </r>
       <r>   -1.5000    1.0000 </r>
       <r>    0.0592    1.0000 </r>
       <r>    3.5437    1.0000 </r>
       <r>    4.0026    1.0000 </r>
       <r>    4.9404    1.0000 </r>
       <r>    5.3453    1.0000 </r>
       <r>    6.1783    1.0000 </r>
       <r>    6.2991    1.0000 </r>
       <r>    7.6572    1.0000 </r>
       <r>    8.5919    1.0000 </r>
       <r>   10.3783    1.0000 </r>
       <r>   11.7636    1.0000 </r>
       <r>   11.9403    1.0000 </r>
       <r>   12.0224    1.0000 </r>
       <r>   12.5804    1.0000 </r>
       <r>   16.7149   -0.0000 </r>
       <r>   17.6371   -0.0000 </r>
       <r>   19.2368    0.0000 </r>
       <r>   20.1266    0.0000 </r>
       <r>   20.1656    0.0000 </r>
       <r>   20.6165    0.0000 </r>
       <r>   20.7780    0.0000 </r>
       <r>   21.1379    0.0000 </r>
       <r>   23.8443    0.0000 </r>
      </set>
      <set comment="kpoint 3">
       <r>  -11.8956    1.0000 </r>
       <r>  -10.7859    1.0000 </r>
       <r>   -5.8653    1.0000 </r>
       <r>   -5.6002    1.0000 </r>
       <r>   -5.1544    1.0000 </r>
       <r>   -3.7388    1.0000 </r>
       <r>   -3.2766    1.0000 </r>
       <r>   -1.5423    1.0000 </r>
       <r>   -1.4599    1.0000 </r>
       <r>    0.1119    1.0000 </r>
       <r>    3.5390    1.0000 </r>
       <r>    3.9719    1.0000 </r>
       <r>    4.9643    1.0000 </r>
       <r>    5.3036    1.0000 </r>
       <r>    6.2206    1.0000 </r>
       <r>    6.3024    1.0000 </r>
       <r>    7.6612    1.0000 </r>
       <r>    8.5932    1.0000 </r>
       <r>   10.3700    1.0000 </r>
       <r>   11.7547    1.0000 </r>
       <r>   11.9216    1.0000 </r>
       <r>   12.0133    1.0000 </r>
       <r>   12.5842    1.0000 </r>
       <r>   16.6908   -0.0000 </r>
       <r>   17.6592   -0.0000 </r>
       <r>   19.2191    0.0000 </r>
       <r>   20.1096    0.0000 </r>
       <r>   20.1671    0.0000 </r>
       <r>   20.6323    0.0000 </r>
       <r>   20.7869    0.0000 </r>
       <r>   21.1693    0.0000 </r>
       <r>   23.8470    0.0000 </r>
      </set>
      <set comment="kpoint 4">
       <r>  -11.8906    1.0000 </r>
       <r>  -10.7779    1.0000 </r>
       <r>   -5.8959    1.0000 </r>
       <r>   -5.6122    1.0000 </r>
       <r>   -5.1940    1.0000 </r>
       <r>   -3.6391    1.0000 </r>
       <r>   -3.3579    1.0000 </r>
       <r>   -1.6068    1.0000 </r>
       <r>   -1.3733    1.0000 </r>
       <r>    0.1940    1.0000 </r>
       <r>    3.5305    1.0000 </r>
       <r>    3.9248    1.0000 </r>
       <r>    5.0004    1.0000 </r>
       <r>    5.2438    1.0000 </r>
       <r>    6.2825    1.0000 </r>
       <r>    6.3077    1.0000 </r>
       <r>    7.6677    1.0000 </r>
       <r>    8.5950    1.0000 </r>
       <r>   10.3561    1.0000 </r>
       <r>   11.7398    1.0000 </r>
       <r>   11.8907    1.0000 </r>
       <r>   11.9983    1.0000 </r>
       <r>   12.5905    1.0000 </r>
       <r>   16.6530   -0.0000 </r>
       <r>   17.6941   -0.0000 </r>
       <r>   19.1897    0.0000 </r>
       <r>   20.0858    0.0000 </r>
       <r>   20.1696    0.0000 </r>
       <r>   20.6584    0.0000 </r>
       <r>   20.8009    0.0000 </r>
       <r>   21.2174    0.0000 </r>
       <r>   23.8595    0.0000 </r>
      </set>
      <set comment="kpoint 5">
       <r>  -11.8836    1.0000 </r>
       <r>  -10.7668    1.0000 </r>
       <r>   -5.9358    1.0000 </r>
       <r>   -5.6465    1.0000 </r>
       <r>   -5.2197    1.0000 </r>
       <r>   -3.5205    1.0000 </r>
       <r>   -3.4555    1.0000 </r>
       <r>   -1.6874    1.0000 </r>
       <r>   -1.2630    1.0000 </r>
       <r>    0.2994    1.0000 </r>
       <r>    3.5166    1.0000 </r>
       <r>    3.8655    1.0000 </r>
       <r>    5.0420    1.0000 </r>
       <r>    5.1770    1.0000 </r>
       <r>    6.3152    1.0000 </r>
       <r>    6.3562    1.0000 </r>
       <r>    7.6768    1.0000 </r>
       <r>    8.5972    1.0000 </r>
       <r>   10.3368    1.0000 </r>
       <r>   11.7190    1.0000 </r>
       <r>   11.8481    1.0000 </r>
       <r>   11.9776    1.0000 </r>
       <r>   12.5989    1.0000 </r>
       <r>   16.6038   -0.0000 </r>
       <r>   17.7393   -0.0000 </r>
       <r>   19.1492    0.0000 </r>
       <r>   20.0599    0.0000 </r>
       <r>   20.1731    0.0000 </r>
       <r>   20.6946    0.0000 </r>
       <r>   20.8192    0.0000 </r>
       <r>   21.2776    0.0000 </r>
       <r>   23.8976    0.0000 </r>
      </set>
      <set comment="kpoint 6">
       <r>  -11.8746    1.0000 </r>
       <r>  -10.7524    1.0000 </r>
       <r>   -5.9866    1.0000 </r>
       <r>   -5.7040    1.0000 </r>
       <r>   -5.2219    1.0000 </r>
       <r>   -3.5842    1.0000 </r>
       <r>   -3.3698    1.0000 </r>
       <r>   -1.7781    1.0000 </r>
       <r>   -1.1351    1.0000 </r>
       <r>    0.4226    1.0000 </r>
       <r>    3.4945    1.0000 </r>
       <r>    3.7998    1.0000 </r>
       <r>    5.0524    1.0000 </r>
       <r>    5.1430    1.0000 </r>
       <r>    6.3248    1.0000 </r>
       <r>    6.4362    1.0000 </r>
       <r>    7.6886    1.0000 </r>
       <r>    8.5994    1.0000 </r>
       <r>   10.3122    1.0000 </r>
       <r>   11.6922    1.0000 </r>
       <r>   11.7943    1.0000 </r>
       <r>   11.9516    1.0000 </r>
       <r>   12.6094    1.0000 </r>
       <r>   16.5457   -0.0000 </r>
       <r>   17.7926   -0.0000 </r>
       <r>   19.0987    0.0000 </r>
       <r>   20.0357    0.0000 </r>
       <r>   20.1776    0.0000 </r>
       <r>   20.7405    0.0000 </r>
       <r>   20.8414    0.0000 </r>
       <r>   21.3452    0.0000 </r>
       <r>   23.8030    0.0000 </r>
      </set>
      <set comment="kpoint 7">
       <r>  -11.8637    1.0000 </r>
       <r>  -10.7350    1.0000 </r>
       <r>   -6.0524    1.0000 </r>
       <r>   -5.7725    1.0000 </r>
       <r>   -5.2038    1.0000 </r>
       <r>   -3.7126    1.0000 </r>
       <r>   -3.2195    1.0000 </r>
       <r>   -1.8737    1.0000 </r>
       <r>   -0.9942    1.0000 </r>
       <r>    0.5592    1.0000 </r>
       <r>    3.4589    1.0000 </r>
       <r>    3.7354    1.0000 </r>
       <r>    4.9887    1.0000 </r>
       <r>    5.1859    1.0000 </r>
       <r>    6.3367    1.0000 </r>
       <r>    6.5185    1.0000 </r>
       <r>    7.7029    1.0000 </r>
       <r>    8.6009    1.0000 </r>
       <r>   10.2824    1.0000 </r>
       <r>   11.6587    1.0000 </r>
       <r>   11.7306    1.0000 </r>
       <r>   11.9205    1.0000 </r>
       <r>   12.6216    1.0000 </r>
       <r>   16.4807   -0.0000 </r>
       <r>   17.8524   -0.0000 </r>
       <r>   19.0398   -0.0000 </r>
       <r>   20.0153    0.0000 </r>
       <r>   20.1831    0.0000 </r>
       <r>   20.7959    0.0000 </r>
       <r>   20.8670    0.0000 </r>
       <r>   21.4161    0.0000 </r>
       <r>   23.7813    0.0000 </r>
      </set>
      <set comment="kpoint 8">
       <r>  -11.8507    1.0000 </r>
       <r>  -10.7144    1.0000 </r>
       <r>   -6.1379    1.0000 </r>
       <r>   -5.8373    1.0000 </r>
       <r>   -5.1729    1.0000 </r>
       <r>   -3.8485    1.0000 </r>
       <r>   -3.0626    1.0000 </r>
       <r>   -1.9696    1.0000 </r>
       <r>   -0.8440    1.0000 </r>
       <r>    0.7060    1.0000 </r>
       <r>    3.4034    1.0000 </r>
       <r>    3.6807    1.0000 </r>
       <r>    4.9094    1.0000 </r>
       <r>    5.2484    1.0000 </r>
       <r>    6.3506    1.0000 </r>
       <r>    6.6005    1.0000 </r>
       <r>    7.7198    1.0000 </r>
       <r>    8.6013    1.0000 </r>
       <r>   10.2477    1.0000 </r>
       <r>   11.6151    1.0000 </r>
       <r>   11.6615    1.0000 </r>
       <r>   11.8846    1.0000 </r>
       <r>   12.6356    1.0000 </r>
       <r>   16.4104   -0.0000 </r>
       <r>   17.9172   -0.0000 </r>
       <r>   18.9747   -0.0000 </r>
       <r>   19.9998    0.0000 </r>
       <r>   20.1894    0.0000 </r>
       <r>   20.8601    0.0000 </r>
       <r>   20.8958    0.0000 </r>
       <r>   21.4871    0.0000 </r>
       <r>   23.7229    0.0000 </r>
      </set>
      <set comment="kpoint 9">
       <r>  -11.8357    1.0000 </r>
       <r>  -10.6906    1.0000 </r>
       <r>   -6.2430    1.0000 </r>
       <r>   -5.8912    1.0000 </r>
       <r>   -5.1348    1.0000 </r>
       <r>   -3.9882    1.0000 </r>
       <r>   -2.9058    1.0000 </r>
       <r>   -2.0596    1.0000 </r>
       <r>   -0.6865    1.0000 </r>
       <r>    0.8604    1.0000 </r>
       <r>    3.3250    1.0000 </r>
       <r>    3.6404    1.0000 </r>
       <r>    4.8287    1.0000 </r>
       <r>    5.3166    1.0000 </r>
       <r>    6.3666    1.0000 </r>
       <r>    6.6804    1.0000 </r>
       <r>    7.7392    1.0000 </r>
       <r>    8.5998    1.0000 </r>
       <r>   10.2082    1.0000 </r>
       <r>   11.5488    1.0000 </r>
       <r>   11.6002    1.0000 </r>
       <r>   11.8443    1.0000 </r>
       <r>   12.6511    1.0000 </r>
       <r>   16.3359   -0.0000 </r>
       <r>   17.9862   -0.0000 </r>
       <r>   18.9056   -0.0000 </r>
       <r>   19.9895    0.0000 </r>
       <r>   20.1968    0.0000 </r>
       <r>   20.9273    0.0000 </r>
       <r>   20.9327    0.0000 </r>
       <r>   21.5556    0.0000 </r>
       <r>   23.6687    0.0000 </r>
      </set>
      <set comment="kpoint 10">
       <r>  -11.8188    1.0000 </r>
       <r>  -10.6637    1.0000 </r>
       <r>   -6.3627    1.0000 </r>
       <r>   -5.9346    1.0000 </r>
       <r>   -5.0941    1.0000 </r>
       <r>   -4.1287    1.0000 </r>
       <r>   -2.7607    1.0000 </r>
       <r>   -2.1323    1.0000 </r>
       <r>   -0.5233    1.0000 </r>
       <r>    1.0207    1.0000 </r>
       <r>    3.2272    1.0000 </r>
       <r>    3.6123    1.0000 </r>
       <r>    4.7494    1.0000 </r>
       <r>    5.3879    1.0000 </r>
       <r>    6.3847    1.0000 </r>
       <r>    6.7567    1.0000 </r>
       <r>    7.7612    1.0000 </r>
       <r>    8.5957    1.0000 </r>
       <r>   10.1642    1.0000 </r>
       <r>   11.4594    1.0000 </r>
       <r>   11.5484    1.0000 </r>
       <r>   11.7997    1.0000 </r>
       <r>   12.6680    1.0000 </r>
       <r>   16.2583   -0.0000 </r>
       <r>   18.0588   -0.0000 </r>
       <r>   18.8349   -0.0000 </r>
       <r>   19.9839    0.0000 </r>
       <r>   20.2049    0.0000 </r>
       <r>   20.9613    0.0000 </r>
       <r>   21.0133    0.0000 </r>
       <r>   21.6196    0.0000 </r>
       <r>   23.5795    0.0000 </r>
      </set>
      <set comment="kpoint 11">
       <r>  -11.7998    1.0000 </r>
       <r>  -10.6338    1.0000 </r>
       <r>   -6.4917    1.0000 </r>
       <r>   -5.9702    1.0000 </r>
       <r>   -5.0550    1.0000 </r>
       <r>   -4.2665    1.0000 </r>
       <r>   -2.6526    1.0000 </r>
       <r>   -2.1616    1.0000 </r>
       <r>   -0.3558    1.0000 </r>
       <r>    1.1850    1.0000 </r>
       <r>    3.1161    1.0000 </r>
       <r>    3.5921    1.0000 </r>
       <r>    4.6724    1.0000 </r>
       <r>    5.4612    1.0000 </r>
       <r>    6.4050    1.0000 </r>
       <r>    6.8286    1.0000 </r>
       <r>    7.7857    1.0000 </r>
       <r>    8.5880    1.0000 </r>
       <r>   10.1158    1.0000 </r>
       <r>   11.3577    1.0000 </r>
       <r>   11.4962    1.0000 </r>
       <r>   11.7511    1.0000 </r>
       <r>   12.6863    1.0000 </r>
       <r>   16.1782   -0.0000 </r>
       <r>   18.1344   -0.0000 </r>
       <r>   18.7647   -0.0000 </r>
       <r>   19.9824    0.0000 </r>
       <r>   20.2140    0.0000 </r>
       <r>   20.9972    0.0000 </r>
       <r>   21.1011    0.0000 </r>
       <r>   21.6776    0.0000 </r>
       <r>   23.4990    0.0000 </r>
      </set>
      <set comment="kpoint 12">
       <r>  -11.7787    1.0000 </r>
       <r>  -10.6007    1.0000 </r>
       <r>   -6.6258    1.0000 </r>
       <r>   -6.0002    1.0000 </r>
       <r>   -5.0234    1.0000 </r>
       <r>   -4.3957    1.0000 </r>
       <r>   -2.6199    1.0000 </r>
       <r>   -2.1093    1.0000 </r>
       <r>   -0.1847    1.0000 </r>
       <r>    1.3517    1.0000 </r>
       <r>    2.9966    1.0000 </r>
       <r>    3.5764    1.0000 </r>
       <r>    4.5981    1.0000 </r>
       <r>    5.5359    1.0000 </r>
       <r>    6.4273    1.0000 </r>
       <r>    6.8950    1.0000 </r>
       <r>    7.8127    1.0000 </r>
       <r>    8.5759    1.0000 </r>
       <r>   10.0635    1.0000 </r>
       <r>   11.2474    1.0000 </r>
       <r>   11.4412    1.0000 </r>
       <r>   11.6987    1.0000 </r>
       <r>   12.7059    1.0000 </r>
       <r>   16.0963   -0.0000 </r>
       <r>   18.2127   -0.0000 </r>
       <r>   18.6967   -0.0000 </r>
       <r>   19.9844    0.0000 </r>
       <r>   20.2238    0.0000 </r>
       <r>   21.0346    0.0000 </r>
       <r>   21.1958    0.0000 </r>
       <r>   21.7284    0.0000 </r>
       <r>   23.4439    0.0000 </r>
      </set>
      <set comment="kpoint 13">
       <r>  -11.7557    1.0000 </r>
       <r>  -10.5646    1.0000 </r>
       <r>   -6.7627    1.0000 </r>
       <r>   -6.0261    1.0000 </r>
       <r>   -5.0105    1.0000 </r>
       <r>   -4.5060    1.0000 </r>
       <r>   -2.6557    1.0000 </r>
       <r>   -1.9816    1.0000 </r>
       <r>   -0.0109    1.0000 </r>
       <r>    1.5186    1.0000 </r>
       <r>    2.8728    1.0000 </r>
       <r>    3.5636    1.0000 </r>
       <r>    4.5267    1.0000 </r>
       <r>    5.6116    1.0000 </r>
       <r>    6.4518    1.0000 </r>
       <r>    6.9557    1.0000 </r>
       <r>    7.8422    1.0000 </r>
       <r>    8.5584    1.0000 </r>
       <r>   10.0073    1.0000 </r>
       <r>   11.1302    1.0000 </r>
       <r>   11.3829    1.0000 </r>
       <r>   11.6428    1.0000 </r>
       <r>   12.7268    1.0000 </r>
       <r>   16.0130   -0.0000 </r>
       <r>   18.2937   -0.0000 </r>
       <r>   18.6327   -0.0000 </r>
       <r>   19.9893    0.0000 </r>
       <r>   20.2344    0.0000 </r>
       <r>   21.0731    0.0000 </r>
       <r>   21.2967    0.0000 </r>
       <r>   21.7712    0.0000 </r>
       <r>   23.3389    0.0000 </r>
      </set>
      <set comment="kpoint 14">
       <r>  -11.7307    1.0000 </r>
       <r>  -10.5255    1.0000 </r>
       <r>   -6.9006    1.0000 </r>
       <r>   -6.0487    1.0000 </r>
       <r>   -5.0340    1.0000 </r>
       <r>   -4.5796    1.0000 </r>
       <r>   -2.7217    1.0000 </r>
       <r>   -1.8165    1.0000 </r>
       <r>    0.1652    1.0000 </r>
       <r>    1.6820    1.0000 </r>
       <r>    2.7496    1.0000 </r>
       <r>    3.5527    1.0000 </r>
       <r>    4.4580    1.0000 </r>
       <r>    5.6878    1.0000 </r>
       <r>    6.4783    1.0000 </r>
       <r>    7.0098    1.0000 </r>
       <r>    7.8741    1.0000 </r>
       <r>    8.5346    1.0000 </r>
       <r>    9.9476    1.0000 </r>
       <r>   11.0071    1.0000 </r>
       <r>   11.3215    1.0000 </r>
       <r>   11.5836    1.0000 </r>
       <r>   12.7490    1.0000 </r>
       <r>   15.9287   -0.0000 </r>
       <r>   18.3770   -0.0000 </r>
       <r>   18.5737   -0.0000 </r>
       <r>   19.9966    0.0000 </r>
       <r>   20.2458    0.0000 </r>
       <r>   21.1123    0.0000 </r>
       <r>   21.4034    0.0000 </r>
       <r>   21.8053    0.0000 </r>
       <r>   23.2450    0.0000 </r>
      </set>
      <set comment="kpoint 15">
       <r>  -11.7037    1.0000 </r>
       <r>  -10.4834    1.0000 </r>
       <r>   -7.0387    1.0000 </r>
       <r>   -6.0685    1.0000 </r>
       <r>   -5.1055    1.0000 </r>
       <r>   -4.6056    1.0000 </r>
       <r>   -2.7965    1.0000 </r>
       <r>   -1.6347    1.0000 </r>
       <r>    0.3434    1.0000 </r>
       <r>    1.8340    1.0000 </r>
       <r>    2.6356    1.0000 </r>
       <r>    3.5433    1.0000 </r>
       <r>    4.3922    1.0000 </r>
       <r>    5.7641    1.0000 </r>
       <r>    6.5071    1.0000 </r>
       <r>    7.0573    1.0000 </r>
       <r>    7.9086    1.0000 </r>
       <r>    8.5038    1.0000 </r>
       <r>    9.8847    1.0000 </r>
       <r>   10.8794    1.0000 </r>
       <r>   11.2571    1.0000 </r>
       <r>   11.5212    1.0000 </r>
       <r>   12.7725    1.0000 </r>
       <r>   15.8437   -0.0000 </r>
       <r>   18.4627   -0.0000 </r>
       <r>   18.5209   -0.0000 </r>
       <r>   20.0057    0.0000 </r>
       <r>   20.2579    0.0000 </r>
       <r>   21.1518    0.0000 </r>
       <r>   21.5152    0.0000 </r>
       <r>   21.8301    0.0000 </r>
       <r>   23.1645    0.0000 </r>
      </set>
      <set comment="kpoint 16">
       <r>  -11.6747    1.0000 </r>
       <r>  -10.4384    1.0000 </r>
       <r>   -7.1762    1.0000 </r>
       <r>   -6.0859    1.0000 </r>
       <r>   -5.2142    1.0000 </r>
       <r>   -4.5956    1.0000 </r>
       <r>   -2.8712    1.0000 </r>
       <r>   -1.4443    1.0000 </r>
       <r>    0.5231    1.0000 </r>
       <r>    1.9548    1.0000 </r>
       <r>    2.5512    1.0000 </r>
       <r>    3.5353    1.0000 </r>
       <r>    4.3289    1.0000 </r>
       <r>    5.8399    1.0000 </r>
       <r>    6.5378    1.0000 </r>
       <r>    7.0976    1.0000 </r>
       <r>    7.9454    1.0000 </r>
       <r>    8.4652    1.0000 </r>
       <r>    9.8189    1.0000 </r>
       <r>   10.7480    1.0000 </r>
       <r>   11.1900    1.0000 </r>
       <r>   11.4560    1.0000 </r>
       <r>   12.7972    1.0000 </r>
       <r>   15.7583   -0.0000 </r>
       <r>   18.4748   -0.0000 </r>
       <r>   18.5506   -0.0000 </r>
       <r>   20.0162    0.0000 </r>
       <r>   20.2707    0.0000 </r>
       <r>   21.1912    0.0000 </r>
       <r>   21.6318    0.0000 </r>
       <r>   21.8455    0.0000 </r>
       <r>   23.0842    0.0000 </r>
      </set>
      <set comment="kpoint 17">
       <r>  -11.6437    1.0000 </r>
       <r>  -10.3904    1.0000 </r>
       <r>   -7.3126    1.0000 </r>
       <r>   -6.1013    1.0000 </r>
       <r>   -5.3423    1.0000 </r>
       <r>   -4.5679    1.0000 </r>
       <r>   -2.9413    1.0000 </r>
       <r>   -1.2490    1.0000 </r>
       <r>    0.7043    1.0000 </r>
       <r>    2.0017    1.0000 </r>
       <r>    2.5397    1.0000 </r>
       <r>    3.5285    1.0000 </r>
       <r>    4.2682    1.0000 </r>
       <r>    5.9148    1.0000 </r>
       <r>    6.5705    1.0000 </r>
       <r>    7.1306    1.0000 </r>
       <r>    7.9845    1.0000 </r>
       <r>    8.4183    1.0000 </r>
       <r>    9.7504    1.0000 </r>
       <r>   10.6140    1.0000 </r>
       <r>   11.1205    1.0000 </r>
       <r>   11.3880    1.0000 </r>
       <r>   12.8232    1.0000 </r>
       <r>   15.6727   -0.0000 </r>
       <r>   18.4361   -0.0000 </r>
       <r>   18.6406   -0.0000 </r>
       <r>   20.0279    0.0000 </r>
       <r>   20.2842    0.0000 </r>
       <r>   21.2301    0.0000 </r>
       <r>   21.7525    0.0000 </r>
       <r>   21.8513    0.0000 </r>
       <r>   23.0108    0.0000 </r>
      </set>
      <set comment="kpoint 18">
       <r>  -11.6108    1.0000 </r>
       <r>  -10.3395    1.0000 </r>
       <r>   -7.4474    1.0000 </r>
       <r>   -6.1152    1.0000 </r>
       <r>   -5.4792    1.0000 </r>
       <r>   -4.5344    1.0000 </r>
       <r>   -3.0039    1.0000 </r>
       <r>   -1.0504    1.0000 </r>
       <r>    0.8866    1.0000 </r>
       <r>    1.9525    1.0000 </r>
       <r>    2.6235    1.0000 </r>
       <r>    3.5231    1.0000 </r>
       <r>    4.2098    1.0000 </r>
       <r>    5.9881    1.0000 </r>
       <r>    6.6053    1.0000 </r>
       <r>    7.1560    1.0000 </r>
       <r>    8.0260    1.0000 </r>
       <r>    8.3628    1.0000 </r>
       <r>    9.6794    1.0000 </r>
       <r>   10.4785    1.0000 </r>
       <r>   11.0486    1.0000 </r>
       <r>   11.3176    1.0000 </r>
       <r>   12.8506    1.0000 </r>
       <r>   15.5871   -0.0000 </r>
       <r>   18.4048   -0.0000 </r>
       <r>   18.7328   -0.0000 </r>
       <r>   20.0405    0.0000 </r>
       <r>   20.2983    0.0000 </r>
       <r>   21.2681    0.0000 </r>
       <r>   21.8478    0.0000 </r>
       <r>   21.8770    0.0000 </r>
       <r>   22.9439    0.0000 </r>
      </set>
      <set comment="kpoint 19">
       <r>  -11.5759    1.0000 </r>
       <r>  -10.2858    1.0000 </r>
       <r>   -7.5805    1.0000 </r>
       <r>   -6.1283    1.0000 </r>
       <r>   -5.6189    1.0000 </r>
       <r>   -4.5015    1.0000 </r>
       <r>   -3.0564    1.0000 </r>
       <r>   -0.8500    1.0000 </r>
       <r>    1.0696    1.0000 </r>
       <r>    1.8467    1.0000 </r>
       <r>    2.7636    1.0000 </r>
       <r>    3.5191    1.0000 </r>
       <r>    4.1536    1.0000 </r>
       <r>    6.0587    1.0000 </r>
       <r>    6.6421    1.0000 </r>
       <r>    7.1738    1.0000 </r>
       <r>    8.0699    1.0000 </r>
       <r>    8.2986    1.0000 </r>
       <r>    9.6063    1.0000 </r>
       <r>   10.3424    1.0000 </r>
       <r>   10.9746    1.0000 </r>
       <r>   11.2448    1.0000 </r>
       <r>   12.8792    1.0000 </r>
       <r>   15.5018   -0.0000 </r>
       <r>   18.3812   -0.0000 </r>
       <r>   18.8269   -0.0000 </r>
       <r>   20.0536    0.0000 </r>
       <r>   20.3132    0.0000 </r>
       <r>   21.3050    0.0000 </r>
       <r>   21.8354    0.0000 </r>
       <r>   22.0047    0.0000 </r>
       <r>   22.8852    0.0000 </r>
      </set>
      <set comment="kpoint 20">
       <r>  -11.5391    1.0000 </r>
       <r>  -10.2293    1.0000 </r>
       <r>   -7.7114    1.0000 </r>
       <r>   -6.1423    1.0000 </r>
       <r>   -5.7576    1.0000 </r>
       <r>   -4.4733    1.0000 </r>
       <r>   -3.0965    1.0000 </r>
       <r>   -0.6485    1.0000 </r>
       <r>    1.2528    1.0000 </r>
       <r>    1.7187    1.0000 </r>
       <r>    2.9265    1.0000 </r>
       <r>    3.5167    1.0000 </r>
       <r>    4.0994    1.0000 </r>
       <r>    6.1255    1.0000 </r>
       <r>    6.6809    1.0000 </r>
       <r>    7.1838    1.0000 </r>
       <r>    8.1160    1.0000 </r>
       <r>    8.2263    1.0000 </r>
       <r>    9.5314    1.0000 </r>
       <r>   10.2068    1.0000 </r>
       <r>   10.8986    1.0000 </r>
       <r>   11.1699    1.0000 </r>
       <r>   12.9092    1.0000 </r>
       <r>   15.4169   -0.0000 </r>
       <r>   18.3648   -0.0000 </r>
       <r>   18.9230   -0.0000 </r>
       <r>   20.0674    0.0000 </r>
       <r>   20.3287    0.0000 </r>
       <r>   21.3403    0.0000 </r>
       <r>   21.8151    0.0000 </r>
       <r>   22.1353    0.0000 </r>
       <r>   22.8371    0.0000 </r>
      </set>
      <set comment="kpoint 21">
       <r>  -11.5006    1.0000 </r>
       <r>  -10.1701    1.0000 </r>
       <r>   -7.8400    1.0000 </r>
       <r>   -6.1618    1.0000 </r>
       <r>   -5.8893    1.0000 </r>
       <r>   -4.4528    1.0000 </r>
       <r>   -3.1223    1.0000 </r>
       <r>   -0.4473    1.0000 </r>
       <r>    1.4305    1.0000 </r>
       <r>    1.5879    1.0000 </r>
       <r>    3.0986    1.0000 </r>
       <r>    3.5163    1.0000 </r>
       <r>    4.0473    1.0000 </r>
       <r>    6.1870    1.0000 </r>
       <r>    6.7215    1.0000 </r>
       <r>    7.1861    1.0000 </r>
       <r>    8.1468    1.0000 </r>
       <r>    8.1642    1.0000 </r>
       <r>    9.4548    1.0000 </r>
       <r>   10.0725    1.0000 </r>
       <r>   10.8206    1.0000 </r>
       <r>   11.0932    1.0000 </r>
       <r>   12.9405    1.0000 </r>
       <r>   15.3325   -0.0000 </r>
       <r>   18.3554   -0.0000 </r>
       <r>   19.0210   -0.0000 </r>
       <r>   20.0817    0.0000 </r>
       <r>   20.3448    0.0000 </r>
       <r>   21.3736    0.0000 </r>
       <r>   21.7883    0.0000 </r>
       <r>   22.2682    0.0000 </r>
       <r>   22.7975    0.0000 </r>
      </set>
      <set comment="kpoint 22">
       <r>  -11.4601    1.0000 </r>
       <r>  -10.1082    1.0000 </r>
       <r>   -7.9661    1.0000 </r>
       <r>   -6.2007    1.0000 </r>
       <r>   -5.9993    1.0000 </r>
       <r>   -4.4420    1.0000 </r>
       <r>   -3.1322    1.0000 </r>
       <r>   -0.2478    1.0000 </r>
       <r>    1.4284    1.0000 </r>
       <r>    1.6350    1.0000 </r>
       <r>    3.2743    1.0000 </r>
       <r>    3.5183    1.0000 </r>
       <r>    3.9969    1.0000 </r>
       <r>    6.2409    1.0000 </r>
       <r>    6.7642    1.0000 </r>
       <r>    7.1807    1.0000 </r>
       <r>    8.0618    1.0000 </r>
       <r>    8.2147    1.0000 </r>
       <r>    9.3769    1.0000 </r>
       <r>    9.9406    1.0000 </r>
       <r>   10.7407    1.0000 </r>
       <r>   11.0148    1.0000 </r>
       <r>   12.9731    1.0000 </r>
       <r>   15.2488   -0.0000 </r>
       <r>   18.3522   -0.0000 </r>
       <r>   19.1208    0.0000 </r>
       <r>   20.0968    0.0000 </r>
       <r>   20.3616    0.0000 </r>
       <r>   21.4043    0.0000 </r>
       <r>   21.7569    0.0000 </r>
       <r>   22.4035    0.0000 </r>
       <r>   22.7709    0.0000 </r>
      </set>
      <set comment="kpoint 23">
       <r>  -11.4179    1.0000 </r>
       <r>  -10.0437    1.0000 </r>
       <r>   -8.0894    1.0000 </r>
       <r>   -6.2834    1.0000 </r>
       <r>   -6.0631    1.0000 </r>
       <r>   -4.4418    1.0000 </r>
       <r>   -3.1256    1.0000 </r>
       <r>   -0.0526    1.0000 </r>
       <r>    1.2949    1.0000 </r>
       <r>    1.8160    1.0000 </r>
       <r>    3.4490    1.0000 </r>
       <r>    3.5247    1.0000 </r>
       <r>    3.9484    1.0000 </r>
       <r>    6.2846    1.0000 </r>
       <r>    6.8087    1.0000 </r>
       <r>    7.1674    1.0000 </r>
       <r>    7.9741    1.0000 </r>
       <r>    8.2673    1.0000 </r>
       <r>    9.2978    1.0000 </r>
       <r>    9.8117    1.0000 </r>
       <r>   10.6590    1.0000 </r>
       <r>   10.9348    1.0000 </r>
       <r>   13.0070    1.0000 </r>
       <r>   15.1660   -0.0000 </r>
       <r>   18.3546   -0.0000 </r>
       <r>   19.2223    0.0000 </r>
       <r>   20.1128    0.0000 </r>
       <r>   20.3789    0.0000 </r>
       <r>   21.4314    0.0000 </r>
       <r>   21.7230    0.0000 </r>
       <r>   22.5414    0.0000 </r>
       <r>   22.7280    0.0000 </r>
      </set>
      <set comment="kpoint 24">
       <r>  -11.3741    1.0000 </r>
       <r>   -9.9767    1.0000 </r>
       <r>   -8.2096    1.0000 </r>
       <r>   -6.4024    1.0000 </r>
       <r>   -6.0877    1.0000 </r>
       <r>   -4.4523    1.0000 </r>
       <r>   -3.1028    1.0000 </r>
       <r>    0.1329    1.0000 </r>
       <r>    1.1662    1.0000 </r>
       <r>    2.0008    1.0000 </r>
       <r>    3.5250    1.0000 </r>
       <r>    3.6318    1.0000 </r>
       <r>    3.9017    1.0000 </r>
       <r>    6.3147    1.0000 </r>
       <r>    6.8551    1.0000 </r>
       <r>    7.1452    1.0000 </r>
       <r>    7.8880    1.0000 </r>
       <r>    8.3221    1.0000 </r>
       <r>    9.2179    1.0000 </r>
       <r>    9.6866    1.0000 </r>
       <r>   10.5754    1.0000 </r>
       <r>   10.8536    1.0000 </r>
       <r>   13.0423    1.0000 </r>
       <r>   15.0841   -0.0000 </r>
       <r>   18.3617   -0.0000 </r>
       <r>   19.3254    0.0000 </r>
       <r>   20.1301    0.0000 </r>
       <r>   20.3966    0.0000 </r>
       <r>   21.4533    0.0000 </r>
       <r>   21.6897    0.0000 </r>
       <r>   22.6779    0.0000 </r>
       <r>   22.7068    0.0000 </r>
      </set>
      <set comment="kpoint 25">
       <r>  -11.3287    1.0000 </r>
       <r>   -9.9075    1.0000 </r>
       <r>   -8.3266    1.0000 </r>
       <r>   -6.5346    1.0000 </r>
       <r>   -6.0961    1.0000 </r>
       <r>   -4.4721    1.0000 </r>
       <r>   -3.0646    1.0000 </r>
       <r>    0.2959    1.0000 </r>
       <r>    1.0589    1.0000 </r>
       <r>    2.1859    1.0000 </r>
       <r>    3.5363    1.0000 </r>
       <r>    3.8031    1.0000 </r>
       <r>    3.8589    1.0000 </r>
       <r>    6.3275    1.0000 </r>
       <r>    6.9033    1.0000 </r>
       <r>    7.1122    1.0000 </r>
       <r>    7.8098    1.0000 </r>
       <r>    8.3787    1.0000 </r>
       <r>    9.1373    1.0000 </r>
       <r>    9.5658    1.0000 </r>
       <r>   10.4901    1.0000 </r>
       <r>   10.7713    1.0000 </r>
       <r>   13.0789    1.0000 </r>
       <r>   15.0032   -0.0000 </r>
       <r>   18.3724   -0.0000 </r>
       <r>   19.4300    0.0000 </r>
       <r>   20.1491    0.0000 </r>
       <r>   20.4147    0.0000 </r>
       <r>   21.4668    0.0000 </r>
       <r>   21.6612    0.0000 </r>
       <r>   22.6897    0.0000 </r>
       <r>   22.8119    0.0000 </r>
      </set>
      <set comment="kpoint 26">
       <r>  -11.2818    1.0000 </r>
       <r>   -9.8361    1.0000 </r>
       <r>   -8.4398    1.0000 </r>
       <r>   -6.6707    1.0000 </r>
       <r>   -6.0975    1.0000 </r>
       <r>   -4.4999    1.0000 </r>
       <r>   -3.0129    1.0000 </r>
       <r>    0.4044    1.0000 </r>
       <r>    1.0051    1.0000 </r>
       <r>    2.3703    1.0000 </r>
       <r>    3.5504    1.0000 </r>
       <r>    3.8113    1.0000 </r>
       <r>    3.9794    1.0000 </r>
       <r>    6.3195    1.0000 </r>
       <r>    6.9532    1.0000 </r>
       <r>    7.0642    1.0000 </r>
       <r>    7.7470    1.0000 </r>
       <r>    8.4372    1.0000 </r>
       <r>    9.0563    1.0000 </r>
       <r>    9.4497    1.0000 </r>
       <r>   10.4032    1.0000 </r>
       <r>   10.6881    1.0000 </r>
       <r>   13.1167    1.0001 </r>
       <r>   14.9236   -0.0000 </r>
       <r>   18.3857   -0.0000 </r>
       <r>   19.5361    0.0000 </r>
       <r>   20.1703    0.0000 </r>
       <r>   20.4331    0.0000 </r>
       <r>   21.4675    0.0000 </r>
       <r>   21.6428    0.0000 </r>
       <r>   22.7031    0.0000 </r>
       <r>   22.9034    0.0000 </r>
      </set>
      <set comment="kpoint 27">
       <r>  -11.2337    1.0000 </r>
       <r>   -9.7629    1.0000 </r>
       <r>   -8.5488    1.0000 </r>
       <r>   -6.8075    1.0000 </r>
       <r>   -6.0952    1.0000 </r>
       <r>   -4.5336    1.0000 </r>
       <r>   -2.9496    1.0000 </r>
       <r>    0.4147    1.0000 </r>
       <r>    1.0486    1.0000 </r>
       <r>    2.5533    1.0000 </r>
       <r>    3.5692    1.0000 </r>
       <r>    3.7699    1.0000 </r>
       <r>    4.1479    1.0000 </r>
       <r>    6.2883    1.0000 </r>
       <r>    6.9974    1.0000 </r>
       <r>    7.0048    1.0000 </r>
       <r>    7.7071    1.0000 </r>
       <r>    8.4975    1.0000 </r>
       <r>    8.9752    1.0000 </r>
       <r>    9.3387    1.0000 </r>
       <r>   10.3150    1.0000 </r>
       <r>   10.6042    1.0000 </r>
       <r>   13.1558    1.0003 </r>
       <r>   14.8453   -0.0000 </r>
       <r>   18.4006   -0.0000 </r>
       <r>   19.6434    0.0000 </r>
       <r>   20.1940    0.0000 </r>
       <r>   20.4515    0.0000 </r>
       <r>   21.4527    0.0000 </r>
       <r>   21.6381    0.0000 </r>
       <r>   22.6687    0.0000 </r>
       <r>   22.8684    0.0000 </r>
      </set>
      <set comment="kpoint 28">
       <r>  -11.1846    1.0000 </r>
       <r>   -9.6885    1.0000 </r>
       <r>   -8.6529    1.0000 </r>
       <r>   -6.9436    1.0000 </r>
       <r>   -6.0904    1.0000 </r>
       <r>   -4.5714    1.0000 </r>
       <r>   -2.8766    1.0000 </r>
       <r>    0.3399    1.0000 </r>
       <r>    1.1762    1.0000 </r>
       <r>    2.7337    1.0000 </r>
       <r>    3.5941    1.0000 </r>
       <r>    3.7298    1.0000 </r>
       <r>    4.3122    1.0000 </r>
       <r>    6.2329    1.0000 </r>
       <r>    6.9099    1.0000 </r>
       <r>    7.0579    1.0000 </r>
       <r>    7.6936    1.0000 </r>
       <r>    8.5595    1.0000 </r>
       <r>    8.8942    1.0000 </r>
       <r>    9.2330    1.0000 </r>
       <r>   10.2255    1.0000 </r>
       <r>   10.5199    1.0000 </r>
       <r>   13.1960    1.0008 </r>
       <r>   14.7684   -0.0000 </r>
       <r>   18.4161   -0.0000 </r>
       <r>   19.7518    0.0000 </r>
       <r>   20.2206    0.0000 </r>
       <r>   20.4698    0.0000 </r>
       <r>   21.4255    0.0000 </r>
       <r>   21.6441    0.0000 </r>
       <r>   22.6299    0.0000 </r>
       <r>   22.7029    0.0000 </r>
      </set>
      <set comment="kpoint 29">
       <r>  -11.1347    1.0000 </r>
       <r>   -9.6138    1.0000 </r>
       <r>   -8.7509    1.0000 </r>
       <r>   -7.0785    1.0000 </r>
       <r>   -6.0838    1.0000 </r>
       <r>   -4.6116    1.0000 </r>
       <r>   -2.7958    1.0000 </r>
       <r>    0.2260    1.0000 </r>
       <r>    1.3411    1.0000 </r>
       <r>    2.9100    1.0000 </r>
       <r>    3.6272    1.0000 </r>
       <r>    3.6917    1.0000 </r>
       <r>    4.4711    1.0000 </r>
       <r>    6.1540    1.0000 </r>
       <r>    6.8039    1.0000 </r>
       <r>    7.1125    1.0000 </r>
       <r>    7.7049    1.0000 </r>
       <r>    8.6229    1.0000 </r>
       <r>    8.8137    1.0000 </r>
       <r>    9.1327    1.0000 </r>
       <r>   10.1353    1.0000 </r>
       <r>   10.4352    1.0000 </r>
       <r>   13.2374    1.0020 </r>
       <r>   14.6932   -0.0000 </r>
       <r>   18.4315   -0.0000 </r>
       <r>   19.8612    0.0000 </r>
       <r>   20.2500    0.0000 </r>
       <r>   20.4880    0.0000 </r>
       <r>   21.3916    0.0000 </r>
       <r>   21.6560    0.0000 </r>
       <r>   22.5966    0.0000 </r>
       <r>   22.8076    0.0000 </r>
      </set>
      <set comment="kpoint 30">
       <r>  -11.0842    1.0000 </r>
       <r>   -9.5403    1.0000 </r>
       <r>   -8.8409    1.0000 </r>
       <r>   -7.2118    1.0000 </r>
       <r>   -6.0759    1.0000 </r>
       <r>   -4.6527    1.0000 </r>
       <r>   -2.7085    1.0000 </r>
       <r>    0.0973    1.0000 </r>
       <r>    1.5182    1.0000 </r>
       <r>    3.0792    1.0000 </r>
       <r>    3.6545    1.0000 </r>
       <r>    3.6733    1.0000 </r>
       <r>    4.6233    1.0000 </r>
       <r>    6.0536    1.0000 </r>
       <r>    6.6833    1.0000 </r>
       <r>    7.1685    1.0000 </r>
       <r>    7.7363    1.0000 </r>
       <r>    8.6851    1.0000 </r>
       <r>    8.7366    1.0000 </r>
       <r>    9.0378    1.0000 </r>
       <r>   10.0447    1.0000 </r>
       <r>   10.3505    1.0000 </r>
       <r>   13.2796    1.0045 </r>
       <r>   14.6197   -0.0000 </r>
       <r>   18.4460   -0.0000 </r>
       <r>   19.9713    0.0000 </r>
       <r>   20.2820    0.0000 </r>
       <r>   20.5060    0.0000 </r>
       <r>   21.3549    0.0000 </r>
       <r>   21.6702    0.0000 </r>
       <r>   22.4741    0.0000 </r>
       <r>   22.5869    0.0000 </r>
      </set>
      <set comment="kpoint 31">
       <r>  -11.0338    1.0000 </r>
       <r>   -9.4714    1.0000 </r>
       <r>   -8.9192    1.0000 </r>
       <r>   -7.3431    1.0000 </r>
       <r>   -6.0671    1.0000 </r>
       <r>   -4.6935    1.0000 </r>
       <r>   -2.6163    1.0000 </r>
       <r>   -0.0366    1.0000 </r>
       <r>    1.6970    1.0000 </r>
       <r>    3.2361    1.0000 </r>
       <r>    3.6224    1.0000 </r>
       <r>    3.7341    1.0000 </r>
       <r>    4.7675    1.0000 </r>
       <r>    5.9343    1.0000 </r>
       <r>    6.5522    1.0000 </r>
       <r>    7.2255    1.0000 </r>
       <r>    7.7823    1.0000 </r>
       <r>    8.6510    1.0000 </r>
       <r>    8.7579    1.0000 </r>
       <r>    8.9486    1.0000 </r>
       <r>    9.9544    1.0000 </r>
       <r>   10.2660    1.0000 </r>
       <r>   13.3227    1.0093 </r>
       <r>   14.5483   -0.0000 </r>
       <r>   18.4592   -0.0000 </r>
       <r>   20.0819    0.0000 </r>
       <r>   20.3159    0.0000 </r>
       <r>   20.5238    0.0000 </r>
       <r>   21.3178    0.0000 </r>
       <r>   21.6849    0.0000 </r>
       <r>   22.3630    0.0000 </r>
       <r>   22.5690    0.0000 </r>
      </set>
      <set comment="kpoint 32">
       <r>  -10.9839    1.0000 </r>
       <r>   -9.4141    1.0000 </r>
       <r>   -8.9783    1.0000 </r>
       <r>   -7.4723    1.0000 </r>
       <r>   -6.0578    1.0000 </r>
       <r>   -4.7329    1.0000 </r>
       <r>   -2.5205    1.0000 </r>
       <r>   -0.1714    1.0000 </r>
       <r>    1.8718    1.0000 </r>
       <r>    3.3719    1.0000 </r>
       <r>    3.5969    1.0000 </r>
       <r>    3.8186    1.0000 </r>
       <r>    4.9021    1.0000 </r>
       <r>    5.7996    1.0000 </r>
       <r>    6.4134    1.0000 </r>
       <r>    7.2834    1.0000 </r>
       <r>    7.8383    1.0000 </r>
       <r>    8.5738    1.0000 </r>
       <r>    8.8248    1.0000 </r>
       <r>    8.8651    1.0000 </r>
       <r>    9.8653    1.0000 </r>
       <r>   10.1821    1.0000 </r>
       <r>   13.3664    1.0171 </r>
       <r>   14.4792   -0.0000 </r>
       <r>   18.4708   -0.0000 </r>
       <r>   20.1925    0.0000 </r>
       <r>   20.3509    0.0000 </r>
       <r>   20.5414    0.0000 </r>
       <r>   21.2816    0.0000 </r>
       <r>   21.6980    0.0000 </r>
       <r>   22.2407    0.0000 </r>
       <r>   22.5787    0.0000 </r>
      </set>
      <set comment="kpoint 33">
       <r>  -10.9351    1.0000 </r>
       <r>   -9.3808    1.0000 </r>
       <r>   -9.0053    1.0000 </r>
       <r>   -7.5990    1.0000 </r>
       <r>   -6.0482    1.0000 </r>
       <r>   -4.7699    1.0000 </r>
       <r>   -2.4223    1.0000 </r>
       <r>   -0.3044    1.0000 </r>
       <r>    2.0383    1.0000 </r>
       <r>    3.4648    1.0000 </r>
       <r>    3.5975    1.0000 </r>
       <r>    3.9304    1.0000 </r>
       <r>    5.0246    1.0000 </r>
       <r>    5.6530    1.0000 </r>
       <r>    6.2691    1.0000 </r>
       <r>    7.3419    1.0000 </r>
       <r>    7.9007    1.0000 </r>
       <r>    8.4976    1.0000 </r>
       <r>    8.7877    1.0000 </r>
       <r>    8.8933    1.0000 </r>
       <r>    9.7785    1.0000 </r>
       <r>   10.0989    1.0000 </r>
       <r>   13.4102    1.0271 </r>
       <r>   14.4127   -0.0000 </r>
       <r>   18.4806   -0.0000 </r>
       <r>   20.3028    0.0000 </r>
       <r>   20.3853    0.0000 </r>
       <r>   20.5593    0.0000 </r>
       <r>   21.2475    0.0000 </r>
       <r>   21.7103    0.0000 </r>
       <r>   22.1281    0.0000 </r>
       <r>   22.4801    0.0000 </r>
      </set>
      <set comment="kpoint 34">
       <r>  -10.8885    1.0000 </r>
       <r>   -9.3818    1.0000 </r>
       <r>   -8.9892    1.0000 </r>
[...]
       <r>   -0.4206    1.0000 </r>
       <r>    0.3292    1.0000 </r>
       <r>    0.3379    1.0000 </r>
       <r>    0.8819    1.0000 </r>
       <r>    1.9375    1.0000 </r>
       <r>    2.1117    1.0000 </r>
       <r>    2.2713    1.0000 </r>
       <r>    3.0153    1.0000 </r>
       <r>    4.1839    1.0000 </r>
       <r>    4.4182    1.0000 </r>
       <r>    5.2390    1.0000 </r>
       <r>    5.8298    1.0000 </r>
       <r>    6.0816    1.0000 </r>
       <r>    7.2259    1.0000 </r>
       <r>    8.0176    1.0000 </r>
       <r>    8.7942    1.0000 </r>
       <r>   10.2601    1.0000 </r>
       <r>   10.7450    1.0000 </r>
       <r>   17.2241   -0.0000 </r>
       <r>   17.4779   -0.0000 </r>
       <r>   17.7382   -0.0000 </r>
       <r>   20.2987    0.0000 </r>
       <r>   20.7041    0.0000 </r>
       <r>   22.2115    0.0000 </r>
       <r>   24.2233    0.0000 </r>
      </set>
      <set comment="kpoint 199">
       <r>   -6.5983    1.0000 </r>
       <r>   -6.5296    1.0000 </r>
       <r>   -6.2149    1.0000 </r>
       <r>   -3.6979    1.0000 </r>
       <r>   -1.8795    1.0000 </r>
       <r>   -0.7928    1.0000 </r>
       <r>   -0.5083    1.0000 </r>
       <r>   -0.4886    1.0000 </r>
       <r>    0.2908    1.0000 </r>
       <r>    0.3149    1.0000 </r>
       <r>    0.9392    1.0000 </r>
       <r>    1.9521    1.0000 </r>
       <r>    2.0539    1.0000 </r>
       <r>    2.2941    1.0000 </r>
       <r>    3.0114    1.0000 </r>
       <r>    4.1665    1.0000 </r>
       <r>    4.3959    1.0000 </r>
       <r>    5.2366    1.0000 </r>
       <r>    5.8073    1.0000 </r>
       <r>    6.0911    1.0000 </r>
       <r>    7.2477    1.0000 </r>
       <r>    8.0221    1.0000 </r>
       <r>    8.7892    1.0000 </r>
       <r>   10.3437    1.0000 </r>
       <r>   10.6617    1.0000 </r>
       <r>   17.2393   -0.0000 </r>
       <r>   17.4626   -0.0000 </r>
       <r>   17.7248   -0.0000 </r>
       <r>   20.2932    0.0000 </r>
       <r>   20.7001    0.0000 </r>
       <r>   22.2032    0.0000 </r>
       <r>   24.2591    0.0000 </r>
      </set>
      <set comment="kpoint 200">
       <r>   -6.5991    1.0000 </r>
       <r>   -6.5300    1.0000 </r>
       <r>   -6.2170    1.0000 </r>
       <r>   -3.6992    1.0000 </r>
       <r>   -1.8795    1.0000 </r>
       <r>   -0.7440    1.0000 </r>
       <r>   -0.5261    1.0000 </r>
       <r>   -0.4968    1.0000 </r>
       <r>    0.2777    1.0000 </r>
       <r>    0.3067    1.0000 </r>
       <r>    0.9598    1.0000 </r>
       <r>    1.9570    1.0000 </r>
       <r>    2.0334    1.0000 </r>
       <r>    2.3018    1.0000 </r>
       <r>    3.0101    1.0000 </r>
       <r>    4.1607    1.0000 </r>
       <r>    4.3884    1.0000 </r>
       <r>    5.2358    1.0000 </r>
       <r>    5.7998    1.0000 </r>
       <r>    6.0943    1.0000 </r>
       <r>    7.2550    1.0000 </r>
       <r>    8.0236    1.0000 </r>
       <r>    8.7875    1.0000 </r>
       <r>   10.3839    1.0000 </r>
       <r>   10.6216    1.0000 </r>
       <r>   17.2444   -0.0000 </r>
       <r>   17.4575   -0.0000 </r>
       <r>   17.7203   -0.0000 </r>
       <r>   20.2914    0.0000 </r>
       <r>   20.6987    0.0000 </r>
       <r>   22.2004    0.0000 </r>
       <r>   24.2736    0.0000 </r>
      </set>
     </set>
    </set>
   </array>
  </eigenvalues>
  <separator name="orbital magnetization" >
   <v name="MAGDIPOLOUT">      0.00000000      0.00000000      0.00000000</v>
  </separator>
  <dos>
   <i name="efermi">     13.71291294 </i>
   <total>
    <array>
     <dimension dim="1">gridpoints</dimension>
     <dimension dim="2">spin</dimension>
     <field>energy</field>
     <field>total</field>
     <field>integrated</field>
     <set>
      <set comment="spin 1">
       <r>   -14.1812     0.0000     0.0000 </r>
       <r>   -14.0464     0.0000     0.0000 </r>
       <r>   -13.9115    -0.0000    -0.0000 </r>
       <r>   -13.7767    -0.0000    -0.0000 </r>
       <r>   -13.6418    -0.0000    -0.0000 </r>
       <r>   -13.5070    -0.0000    -0.0000 </r>
       <r>   -13.3722    -0.0000    -0.0000 </r>
       <r>   -13.2373    -0.0000    -0.0000 </r>
       <r>   -13.1025    -0.0000    -0.0000 </r>
       <r>   -12.9676    -0.0000    -0.0000 </r>
       <r>   -12.8328    -0.0000    -0.0000 </r>
       <r>   -12.6979    -0.0005    -0.0001 </r>
       <r>   -12.5631    -0.0077    -0.0011 </r>
       <r>   -12.4282    -0.0312    -0.0053 </r>
       <r>   -12.2934     0.0648     0.0034 </r>
       <r>   -12.1585     0.4872     0.0691 </r>
       <r>   -12.0237     0.7998     0.1770 </r>
       <r>   -11.8888     0.8813     0.2958 </r>
       <r>   -11.7540     0.9181     0.4196 </r>
       <r>   -11.6191     0.7304     0.5181 </r>
       <r>   -11.4843     0.5625     0.5940 </r>
       <r>   -11.3494     0.4955     0.6608 </r>
       <r>   -11.2146     0.4580     0.7226 </r>
       <r>   -11.0797     0.4257     0.7800 </r>
       <r>   -10.9449     0.4659     0.8428 </r>
       <r>   -10.8100     0.7632     0.9457 </r>
       <r>   -10.6752     0.9375     1.0721 </r>
       <r>   -10.5403     0.5731     1.1494 </r>
       <r>   -10.4055     0.2844     1.1878 </r>
       <r>   -10.2706     0.2378     1.2198 </r>
       <r>   -10.1358     0.2185     1.2493 </r>
       <r>   -10.0009     0.1728     1.2726 </r>
       <r>    -9.8661     0.2472     1.3059 </r>
       <r>    -9.7312     0.7669     1.4093 </r>
       <r>    -9.5964     1.2959     1.5841 </r>
       <r>    -9.4615     1.3371     1.7644 </r>
       <r>    -9.3267     1.0754     1.9094 </r>
       <r>    -9.1918     0.6620     1.9987 </r>
       <r>    -9.0570     0.3525     2.0462 </r>
       <r>    -8.9221     0.3899     2.0988 </r>
       <r>    -8.7873     0.6298     2.1837 </r>
       <r>    -8.6524     0.7355     2.2829 </r>
       <r>    -8.5176     0.5892     2.3624 </r>
       <r>    -8.3827     0.6713     2.4529 </r>
       <r>    -8.2479     1.1547     2.6086 </r>
       <r>    -8.1130     1.2134     2.7722 </r>
       <r>    -7.9782     1.0051     2.9078 </r>
       <r>    -7.8433     0.8606     3.0238 </r>
       <r>    -7.7085     0.6189     3.1073 </r>
       <r>    -7.5736     0.4604     3.1693 </r>
       <r>    -7.4388     0.4514     3.2302 </r>
       <r>    -7.3039     0.5596     3.3057 </r>
       <r>    -7.1691     0.6880     3.3984 </r>
       <r>    -7.0342     0.8071     3.5073 </r>
       <r>    -6.8994     0.9802     3.6395 </r>
       <r>    -6.7645     1.0318     3.7786 </r>
       <r>    -6.6297     1.5783     3.9914 </r>
       <r>    -6.4948     2.4203     4.3178 </r>
       <r>    -6.3600     2.3386     4.6332 </r>
       <r>    -6.2251     2.1701     4.9258 </r>
       <r>    -6.0903     2.8775     5.3138 </r>
       <r>    -5.9554     3.2767     5.7557 </r>
       <r>    -5.8206     2.6459     6.1125 </r>
       <r>    -5.6857     1.6466     6.3345 </r>
       <r>    -5.5509     0.9892     6.4679 </r>
       <r>    -5.4160     0.7724     6.5721 </r>
       <r>    -5.2812     0.7603     6.6746 </r>
       <r>    -5.1463     0.9424     6.8017 </r>
       <r>    -5.0115     1.4911     7.0028 </r>
       <r>    -4.8766     2.0935     7.2851 </r>
       <r>    -4.7418     1.9769     7.5517 </r>
       <r>    -4.6069     1.5388     7.7592 </r>
       <r>    -4.4721     1.3348     7.9392 </r>
       <r>    -4.3372     0.9579     8.0684 </r>
       <r>    -4.2024     0.7131     8.1645 </r>
       <r>    -4.0675     0.9231     8.2890 </r>
       <r>    -3.9327     1.3506     8.4711 </r>
       <r>    -3.7978     1.7392     8.7056 </r>
       <r>    -3.6630     2.1150     8.9909 </r>
       <r>    -3.5281     2.1454     9.2802 </r>
       <r>    -3.3933     2.0789     9.5605 </r>
       <r>    -3.2584     2.5708     9.9072 </r>
       <r>    -3.1236     2.7660    10.2802 </r>
       <r>    -2.9887     2.6908    10.6430 </r>
       <r>    -2.8539     2.5235    10.9833 </r>
       <r>    -2.7190     2.1949    11.2793 </r>
       <r>    -2.5842     2.0295    11.5530 </r>
       <r>    -2.4493     2.0040    11.8232 </r>
       <r>    -2.3145     1.6940    12.0517 </r>
       <r>    -2.1796     1.3920    12.2394 </r>
       <r>    -2.0448     1.6152    12.4572 </r>
       <r>    -1.9099     2.6681    12.8170 </r>
       <r>    -1.7751     3.2550    13.2559 </r>
       <r>    -1.6402     2.4928    13.5920 </r>
       <r>    -1.5054     1.9071    13.8492 </r>
       <r>    -1.3705     1.7031    14.0789 </r>
       <r>    -1.2357     1.5433    14.2870 </r>
       <r>    -1.1008     1.9491    14.5498 </r>
       <r>    -0.9660     2.7858    14.9255 </r>
       <r>    -0.8311     2.7576    15.2974 </r>
       <r>    -0.6963     2.2221    15.5970 </r>
       <r>    -0.5614     2.1124    15.8819 </r>
       <r>    -0.4266     2.1283    16.1689 </r>
       <r>    -0.2917     2.1161    16.4542 </r>
       <r>    -0.1569     2.3322    16.7687 </r>
       <r>    -0.0220     2.1161    17.0541 </r>
       <r>     0.1128     1.7940    17.2960 </r>
       <r>     0.2477     2.3802    17.6170 </r>
       <r>     0.3825     3.0445    18.0275 </r>
       <r>     0.5174     2.5799    18.3754 </r>
       <r>     0.6522     1.8311    18.6224 </r>
       <r>     0.7871     1.9898    18.8907 </r>
       <r>     0.9219     2.5755    19.2380 </r>
       <r>     1.0568     2.9788    19.6397 </r>
       <r>     1.1916     2.9116    20.0323 </r>
       <r>     1.3265     1.9997    20.3020 </r>
       <r>     1.4613     1.3730    20.4871 </r>
       <r>     1.5962     1.6393    20.7082 </r>
       <r>     1.7310     2.0574    20.9856 </r>
       <r>     1.8658     2.1038    21.2693 </r>
       <r>     2.0007     2.0582    21.5469 </r>
       <r>     2.1355     2.1347    21.8347 </r>
       <r>     2.2704     2.3413    22.1504 </r>
       <r>     2.4052     2.3395    22.4659 </r>
       <r>     2.5401     2.2595    22.7706 </r>
       <r>     2.6749     2.4161    23.0964 </r>
       <r>     2.8098     2.2879    23.4049 </r>
       <r>     2.9446     1.9096    23.6624 </r>
       <r>     3.0795     1.9936    23.9313 </r>
       <r>     3.2143     2.2297    24.2320 </r>
       <r>     3.3492     2.6419    24.5882 </r>
       <r>     3.4840     3.3543    25.0405 </r>
       <r>     3.6189     3.3290    25.4894 </r>
       <r>     3.7537     2.4064    25.8139 </r>
       <r>     3.8886     2.1105    26.0985 </r>
       <r>     4.0234     2.7827    26.4738 </r>
       <r>     4.1583     3.2588    26.9132 </r>
       <r>     4.2931     2.9426    27.3100 </r>
       <r>     4.4280     2.3886    27.6321 </r>
       <r>     4.5628     2.0624    27.9102 </r>
       <r>     4.6977     1.9021    28.1667 </r>
       <r>     4.8325     1.8272    28.4132 </r>
       <r>     4.9674     2.2474    28.7162 </r>
       <r>     5.1022     2.9068    29.1082 </r>
       <r>     5.2371     3.2014    29.5399 </r>
       <r>     5.3719     3.2823    29.9825 </r>
       <r>     5.5068     3.1653    30.4093 </r>
       <r>     5.6416     3.0333    30.8184 </r>
       <r>     5.7765     2.8110    31.1974 </r>
       <r>     5.9113     2.9059    31.5893 </r>
       <r>     6.0462     3.5526    32.0684 </r>
       <r>     6.1810     4.1792    32.6319 </r>
       <r>     6.3159     4.5169    33.2410 </r>
       <r>     6.4507     4.2216    33.8103 </r>
       <r>     6.5856     3.4952    34.2816 </r>
       <r>     6.7204     3.1161    34.7018 </r>
       <r>     6.8553     2.8299    35.0834 </r>
       <r>     6.9901     2.4434    35.4129 </r>
       <r>     7.1250     2.6923    35.7760 </r>
       <r>     7.2598     2.9216    36.1700 </r>
       <r>     7.3947     2.8224    36.5506 </r>
       <r>     7.5295     2.5852    36.8992 </r>
       <r>     7.6644     2.3022    37.2096 </r>
       <r>     7.7992     2.1995    37.5062 </r>
       <r>     7.9341     2.2423    37.8086 </r>
       <r>     8.0689     2.5634    38.1543 </r>
       <r>     8.2038     3.1716    38.5820 </r>
       <r>     8.3386     4.1700    39.1443 </r>
       <r>     8.4735     4.2439    39.7166 </r>
       <r>     8.6083     3.4132    40.1768 </r>
       <r>     8.7432     2.8341    40.5590 </r>
       <r>     8.8780     2.8401    40.9420 </r>
       <r>     9.0129     2.9038    41.3336 </r>
       <r>     9.1477     2.4983    41.6705 </r>
       <r>     9.2826     2.1517    41.9606 </r>
       <r>     9.4174     2.3426    42.2765 </r>
       <r>     9.5523     2.3021    42.5870 </r>
       <r>     9.6871     2.0074    42.8577 </r>
       <r>     9.8220     2.2287    43.1582 </r>
       <r>     9.9568     2.6070    43.5097 </r>
       <r>    10.0917     2.5204    43.8496 </r>
       <r>    10.2265     2.2040    44.1468 </r>
       <r>    10.3614     2.3953    44.4698 </r>
       <r>    10.4962     2.3103    44.7814 </r>
       <r>    10.6311     1.4716    44.9798 </r>
       <r>    10.7659     1.0190    45.1172 </r>
       <r>    10.9008     1.0423    45.2578 </r>
       <r>    11.0356     1.1680    45.4153 </r>
       <r>    11.1705     1.4232    45.6072 </r>
       <r>    11.3053     1.4814    45.8070 </r>
       <r>    11.4402     1.1504    45.9621 </r>
       <r>    11.5750     1.0464    46.1032 </r>
       <r>    11.7099     1.3258    46.2820 </r>
       <r>    11.8447     1.5729    46.4941 </r>
       <r>    11.9796     1.5211    46.6992 </r>
       <r>    12.1144     1.1349    46.8523 </r>
       <r>    12.2493     0.6402    46.9386 </r>
       <r>    12.3841     0.4674    47.0016 </r>
       <r>    12.5190     0.5997    47.0825 </r>
       <r>    12.6538     0.9235    47.2070 </r>
       <r>    12.7887     0.9832    47.3396 </r>
       <r>    12.9235     0.8209    47.4503 </r>
       <r>    13.0584     0.7280    47.5485 </r>
       <r>    13.1932     0.6775    47.6398 </r>
       <r>    13.3281     0.6609    47.7290 </r>
       <r>    13.4629     0.6862    47.8215 </r>
       <r>    13.5978     0.7623    47.9243 </r>
       <r>    13.7326     0.6304    48.0093 </r>
       <r>    13.8675     0.2439    48.0422 </r>
       <r>    14.0023     0.1291    48.0596 </r>
       <r>    14.1372     0.4542    48.1209 </r>
       <r>    14.2720     0.7198    48.2179 </r>
       <r>    14.4069     0.6116    48.3004 </r>
       <r>    14.5417     0.5080    48.3689 </r>
       <r>    14.6766     0.4972    48.4359 </r>
       <r>    14.8114     0.4690    48.4992 </r>
       <r>    14.9463     0.4774    48.5636 </r>
       <r>    15.0811     0.4576    48.6253 </r>
       <r>    15.2160     0.4591    48.6872 </r>
       <r>    15.3508     0.4567    48.7488 </r>
       <r>    15.4857     0.4466    48.8090 </r>
       <r>    15.6205     0.4576    48.8707 </r>
       <r>    15.7554     0.4441    48.9306 </r>
       <r>    15.8902     0.4583    48.9924 </r>
       <r>    16.0251     0.4511    49.0532 </r>
       <r>    16.1599     0.4632    49.1157 </r>
       <r>    16.2948     0.4634    49.1782 </r>
       <r>    16.4296     0.4695    49.2415 </r>
       <r>    16.5645     0.5554    49.3164 </r>
       <r>    16.6993     0.8048    49.4249 </r>
       <r>    16.8342     0.8706    49.5423 </r>
       <r>    16.9690     0.6871    49.6350 </r>
       <r>    17.1038     0.6410    49.7214 </r>
       <r>    17.2387     0.6765    49.8126 </r>
       <r>    17.3735     0.6154    49.8956 </r>
       <r>    17.5084     0.6715    49.9862 </r>
       <r>    17.6432     0.9438    50.1134 </r>
       <r>    17.7781     1.1288    50.2657 </r>
       <r>    17.9129     0.9997    50.4005 </r>
       <r>    18.0478     0.9974    50.5350 </r>
       <r>    18.1826     1.0488    50.6764 </r>
       <r>    18.3175     1.3052    50.8524 </r>
       <r>    18.4523     2.2939    51.1618 </r>
       <r>    18.5872     2.8159    51.5415 </r>
       <r>    18.7220     2.6858    51.9037 </r>
       <r>    18.8569     2.2497    52.2070 </r>
       <r>    18.9917     1.5500    52.4160 </r>
       <r>    19.1266     1.3550    52.5988 </r>
       <r>    19.2614     1.5749    52.8111 </r>
       <r>    19.3963     1.6680    53.0361 </r>
       <r>    19.5311     1.8874    53.2906 </r>
       <r>    19.6660     2.0551    53.5677 </r>
       <r>    19.8008     1.8207    53.8132 </r>
       <r>    19.9357     2.1714    54.1061 </r>
       <r>    20.0705     3.3446    54.5571 </r>
       <r>    20.2054     3.8962    55.0825 </r>
       <r>    20.3402     3.5001    55.5545 </r>
       <r>    20.4751     3.1109    55.9740 </r>
       <r>    20.6099     2.7281    56.3419 </r>
       <r>    20.7448     2.2619    56.6469 </r>
       <r>    20.8796     2.0078    56.9176 </r>
       <r>    21.0145     1.8798    57.1711 </r>
       <r>    21.1493     2.1863    57.4659 </r>
       <r>    21.2842     2.5670    57.8121 </r>
       <r>    21.4190     3.2221    58.2466 </r>
       <r>    21.5539     3.8985    58.7723 </r>
       <r>    21.6887     3.4016    59.2310 </r>
       <r>    21.8236     2.9176    59.6245 </r>
       <r>    21.9584     2.9333    60.0200 </r>
       <r>    22.0933     3.1247    60.4414 </r>
       <r>    22.2281     3.5063    60.9142 </r>
       <r>    22.3630     3.4741    61.3827 </r>
       <r>    22.4978     2.8393    61.7655 </r>
       <r>    22.6327     2.8356    62.1479 </r>
       <r>    22.7675     3.3401    62.5983 </r>
       <r>    22.9024     3.0959    63.0158 </r>
       <r>    23.0372     1.9901    63.2842 </r>
       <r>    23.1721     1.1307    63.4367 </r>
       <r>    23.3069     1.0480    63.5780 </r>
       <r>    23.4418     0.9236    63.7025 </r>
       <r>    23.5766     0.5752    63.7801 </r>
       <r>    23.7115     0.3789    63.8312 </r>
       <r>    23.8463     0.4119    63.8868 </r>
       <r>    23.9812     0.3542    63.9345 </r>
       <r>    24.1160     0.1972    63.9611 </r>
       <r>    24.2509     0.1706    63.9841 </r>
       <r>    24.3857     0.1118    63.9992 </r>
       <r>    24.5206     0.0152    64.0012 </r>
       <r>    24.6554    -0.0072    64.0003 </r>
       <r>    24.7903    -0.0018    64.0000 </r>
       <r>    24.9251    -0.0001    64.0000 </r>
       <r>    25.0600    -0.0000    64.0000 </r>
       <r>    25.1948    -0.0000    64.0000 </r>
       <r>    25.3297    -0.0000    64.0000 </r>
       <r>    25.4645    -0.0000    64.0000 </r>
       <r>    25.5994    -0.0000    64.0000 </r>
       <r>    25.7342     0.0000    64.0000 </r>
       <r>    25.8691     0.0000    64.0000 </r>
       <r>    26.0039     0.0000    64.0000 </r>
       <r>    26.1388     0.0000    64.0000 </r>
       <r>    26.2736     0.0000    64.0000 </r>
      </set>
     </set>
    </array>
   </total>
  </dos>
 </calculation>
 <structure name="finalpos" >
  <crystal>
   <varray name="basis" >
    <v>       1.94102604      -6.33829199       0.00000000 </v>
    <v>       1.94102604       6.33829199       0.00000000 </v>
    <v>       0.00000000       0.00000000       2.23954779 </v>
   </varray>
   <i name="volume">     55.10537143 </i>
   <varray name="rec_basis" >
    <v>       0.25759572      -0.07888561       0.00000000 </v>
    <v>       0.25759572       0.07888561       0.00000000 </v>
    <v>       0.00000000       0.00000000       0.44651871 </v>
   </varray>
  </crystal>
  <varray name="positions" >
   <v>       0.71298502       0.92696336       0.00000000 </v>
   <v>       0.28701498       0.07303664       0.00000000 </v>
   <v>       0.92696336       0.71298502       0.00000000 </v>
   <v>       0.07303664       0.28701498       0.00000000 </v>
   <v>       0.25799977       0.37003235       0.50000000 </v>
   <v>       0.74200023       0.62996765       0.50000000 </v>
   <v>       0.62996765       0.74200023       0.50000000 </v>
   <v>       0.37003235       0.25799977       0.50000000 </v>
   <v>       0.12575298       0.53663564       0.00000000 </v>
   <v>       0.87424702       0.46336436       0.00000000 </v>
   <v>       0.53663564       0.12575298       0.00000000 </v>
   <v>       0.46336436       0.87424702       0.00000000 </v>
  </varray>
 </structure>
</modeling>
