ESCALE ; pCOHP file generated by LOBSTER. Energy is shifted such that the Fermi level lies at 0 eV.
        73          1        201  -1.25507e+01   2.02212e+00  -5.28133e-01 
Average
No.1:Na1->Na2(3.9958599867532709)
No.2:Na1->Na2(3.9958599867532709)
No.3:Na1->Na2(3.9958599867532709)
No.4:Na1->Na2(3.9958599867532709)
No.5:Na1->Na3(3.9958599867532709)
No.6:Na1->Na3(3.9958599867532709)
No.7:Na1->Na3(3.9958599867532709)
No.8:Na1->Na3(3.9958599867532709)
No.9:Na1->Na4(3.9958599867532709)
No.10:Na1->Na4(3.9958599867532709)
No.11:Na1->Na4(3.9958599867532709)
No.12:Na1->Na4(3.9958599867532709)
No.13:Na1->Cl5(2.8254996933052259)
No.14:Na1->Cl5(2.8254996933052259)
No.15:Na1->Cl6(2.8254996933052259)
No.16:Na1->Cl6(2.8254996933052259)
No.17:Na1->Cl7(2.8254996933052259)
No.18:Na1->Cl7(2.8254996933052259)
No.19:Na2->Na3(3.9958599867532709)
No.20:Na2->Na3(3.9958599867532709)
No.21:Na2->Na3(3.9958599867532709)
No.22:Na2->Na3(3.9958599867532709)
No.23:Na2->Na4(3.9958599867532709)
No.24:Na2->Na4(3.9958599867532709)
No.25:Na2->Na4(3.9958599867532709)
No.26:Na2->Na4(3.9958599867532709)
No.27:Na2->Cl5(2.8254996933052259)
No.28:Na2->Cl5(2.8254996933052259)
No.29:Na2->Cl6(2.8254996933052259)
No.30:Na2->Cl6(2.8254996933052259)
No.31:Na2->Cl8(2.8254996933052259)
No.32:Na2->Cl8(2.8254996933052259)
No.33:Na3->Na4(3.9958599867532709)
No.34:Na3->Na4(3.9958599867532709)
No.35:Na3->Na4(3.9958599867532709)
No.36:Na3->Na4(3.9958599867532709)
No.37:Na3->Cl5(2.8254996933052259)
No.38:Na3->Cl5(2.8254996933052259)
No.39:Na3->Cl7(2.8254996933052259)
No.40:Na3->Cl7(2.8254996933052259)
No.41:Na3->Cl8(2.8254996933052259)
No.42:Na3->Cl8(2.8254996933052259)
No.43:Na4->Cl6(2.8254996933052259)
No.44:Na4->Cl6(2.8254996933052259)
No.45:Na4->Cl7(2.8254996933052259)
No.46:Na4->Cl7(2.8254996933052259)
No.47:Na4->Cl8(2.8254996933052259)
No.48:Na4->Cl8(2.8254996933052259)
No.49:Cl5->Cl6(3.9958599867532709)
No.50:Cl5->Cl6(3.9958599867532709)
No.51:Cl5->Cl6(3.9958599867532709)
No.52:Cl5->Cl6(3.9958599867532709)
No.53:Cl5->Cl7(3.9958599867532709)
No.54:Cl5->Cl7(3.9958599867532709)
No.55:Cl5->Cl7(3.9958599867532709)
No.56:Cl5->Cl7(3.9958599867532709)
No.57:Cl5->Cl8(3.9958599867532709)
No.58:Cl5->Cl8(3.9958599867532709)
No.59:Cl5->Cl8(3.9958599867532709)
No.60:Cl5->Cl8(3.9958599867532709)
No.61:Cl6->Cl7(3.9958599867532709)
No.62:Cl6->Cl7(3.9958599867532709)
No.63:Cl6->Cl7(3.9958599867532709)
No.64:Cl6->Cl7(3.9958599867532709)
No.65:Cl6->Cl8(3.9958599867532709)
No.66:Cl6->Cl8(3.9958599867532709)
No.67:Cl6->Cl8(3.9958599867532709)
No.68:Cl6->Cl8(3.9958599867532709)
No.69:Cl7->Cl8(3.9958599867532709)
No.70:Cl7->Cl8(3.9958599867532709)
No.71:Cl7->Cl8(3.9958599867532709)
No.72:Cl7->Cl8(3.9958599867532709)
-12.02261   0.00000  -0.15834   0.00000  -0.02397   0.00000  -0.02397   0.00000  -0.02397   0.00000  -0.02397   0.00000  -0.03470   0.00000  -0.03470   0.00000  -0.03470   0.00000  -0.03470   0.00000  -0.03470   0.00000  -0.03470   0.00000  -0.03470   0.00000  -0.03470   0.00000  -0.37231   0.00000  -0.37230   0.00000  -0.37230   0.00000  -0.37230   0.00000  -0.53270   0.00000  -0.53270   0.00000  -0.03470   0.00000  -0.03470   0.00000  -0.03470   0.00000  -0.03470   0.00000  -0.03471   0.00000  -0.03470   0.00000  -0.03470   0.00000  -0.03470   0.00000  -0.37229   0.00000  -0.37228   0.00000  -0.37230   0.00000  -0.37230   0.00000  -0.53271   0.00000  -0.53271   0.00000  -0.02397   0.00000  -0.02397   0.00000  -0.02397   0.00000  -0.02397   0.00000  -0.53270   0.00000  -0.53271   0.00000  -0.37230   0.00000  -0.37230   0.00000  -0.37230   0.00000  -0.37229   0.00000  -0.53271   0.00000  -0.53271   0.00000  -0.37230   0.00000  -0.37229   0.00000  -0.37230   0.00000  -0.37229   0.00000  -0.01391   0.00000  -0.01391   0.00000  -0.01391   0.00000  -0.01391   0.00000  -0.02021   0.00000  -0.02021   0.00000  -0.02021   0.00000  -0.02021   0.00000  -0.02021   0.00000  -0.02021   0.00000  -0.02021   0.00000  -0.02021   0.00000  -0.02021   0.00000  -0.02021   0.00000  -0.02021   0.00000  -0.02021   0.00000  -0.02021   0.00000  -0.02021   0.00000  -0.02021   0.00000  -0.02021   0.00000  -0.01391   0.00000  -0.01391   0.00000  -0.01391   0.00000  -0.01391
-11.94975   0.00000  -0.15834   0.00000  -0.02397   0.00000  -0.02397   0.00000  -0.02397   0.00000  -0.02397   0.00000  -0.03470   0.00000  -0.03470   0.00000  -0.03470   0.00000  -0.03470   0.00000  -0.03470   0.00000  -0.03470   0.00000  -0.03470   0.00000  -0.03470   0.00000  -0.37231   0.00000  -0.37230   0.00000  -0.37230   0.00000  -0.37230   0.00000  -0.53270   0.00000  -0.53270   0.00000  -0.03470   0.00000  -0.03470   0.00000  -0.03470   0.00000  -0.03470   0.00000  -0.03471   0.00000  -0.03470   0.00000  -0.03470   0.00000  -0.03470   0.00000  -0.37229   0.00000  -0.37228   0.00000  -0.37230   0.00000  -0.37230   0.00000  -0.53271   0.00000  -0.53271   0.00000  -0.02397   0.00000  -0.02397   0.00000  -0.02397   0.00000  -0.02397   0.00000  -0.53270   0.00000  -0.53271   0.00000  -0.37230   0.00000  -0.37230   0.00000  -0.37230   0.00000  -0.37229   0.00000  -0.53271   0.00000  -0.53271   0.00000  -0.37230   0.00000  -0.37229   0.00000  -0.37230   0.00000  -0.37229   0.00000  -0.01391   0.00000  -0.01391   0.00000  -0.01391   0.00000  -0.01391   0.00000  -0.02021   0.00000  -0.02021   0.00000  -0.02021   0.00000  -0.02021   0.00000  -0.02021   0.00000  -0.02021   0.00000  -0.02021   0.00000  -0.02021   0.00000  -0.02021   0.00000  -0.02021   0.00000  -0.02021   0.00000  -0.02021   0.00000  -0.02021   0.00000  -0.02021   0.00000  -0.02021   0.00000  -0.02021   0.00000  -0.01391   0.00000  -0.01391   0.00000  -0.01391   0.00000  -0.01391
-11.87688   0.00000  -0.15834   0.00000  -0.02397   0.00000  -0.02397   0.00000  -0.02397   0.00000  -0.02397   0.00000  -0.03470   0.00000  -0.03470   0.00000  -0.03470   0.00000  -0.03470   0.00000  -0.03470   0.00000  -0.03470   0.00000  -0.03470   0.00000  -0.03470   0.00000  -0.37231   0.00000  -0.37230   0.00000  -0.37230   0.00000  -0.37230   0.00000  -0.53270   0.00000  -0.53270   0.00000  -0.03470   0.00000  -0.03470   0.00000  -0.03470   0.00000  -0.03470   0.00000  -0.03471   0.00000  -0.03470   0.00000  -0.03470   0.00000  -0.03470   0.00000  -0.37229   0.00000  -0.37228   0.00000  -0.37230   0.00000  -0.37230   0.00000  -0.53271   0.00000  -0.53271   0.00000  -0.02397   0.00000  -0.02397   0.00000  -0.02397   0.00000  -0.02397   0.00000  -0.53270   0.00000  -0.53271   0.00000  -0.37230   0.00000  -0.37230   0.00000  -0.37230   0.00000  -0.37229   0.00000  -0.53271   0.00000  -0.53271   0.00000  -0.37230   0.00000  -0.37229   0.00000  -0.37230   0.00000  -0.37229   0.00000  -0.01391   0.00000  -0.01391   0.00000  -0.01391   0.00000  -0.01391   0.00000  -0.02021   0.00000  -0.02021   0.00000  -0.02021   0.00000  -0.02021   0.00000  -0.02021   0.00000  -0.02021   0.00000  -0.02021   0.00000  -0.02021   0.00000  -0.02021   0.00000  -0.02021   0.00000  -0.02021   0.00000  -0.02021   0.00000  -0.02021   0.00000  -0.02021   0.00000  -0.02021   0.00000  -0.02021   0.00000  -0.01391   0.00000  -0.01391   0.00000  -0.01391   0.00000  -0.01391
-11.80402   0.00000  -0.15834   0.00000  -0.02397   0.00000  -0.02397   0.00000  -0.02397   0.00000  -0.02397   0.00000  -0.03470   0.00000  -0.03470   0.00000  -0.03470   0.00000  -0.03470   0.00000  -0.03470   0.00000  -0.03470   0.00000  -0.03470   0.00000  -0.03470   0.00000  -0.37231   0.00000  -0.37230   0.00000  -0.37230   0.00000  -0.37230   0.00000  -0.53270   0.00000  -0.53270   0.00000  -0.03470   0.00000  -0.03470   0.00000  -0.03470   0.00000  -0.03470   0.00000  -0.03471   0.00000  -0.03470   0.00000  -0.03470   0.00000  -0.03470   0.00000  -0.37229   0.00000  -0.37228   0.00000  -0.37230   0.00000  -0.37230   0.00000  -0.53271   0.00000  -0.53271   0.00000  -0.02397   0.00000  -0.02397   0.00000  -0.02397   0.00000  -0.02397   0.00000  -0.53270   0.00000  -0.53271   0.00000  -0.37230   0.00000  -0.37230   0.00000  -0.37230   0.00000  -0.37229   0.00000  -0.53271   0.00000  -0.53271   0.00000  -0.37230   0.00000  -0.37229   0.00000  -0.37230   0.00000  -0.37229   0.00000  -0.01391   0.00000  -0.01391   0.00000  -0.01391   0.00000  -0.01391   0.00000  -0.02021   0.00000  -0.02021   0.00000  -0.02021   0.00000  -0.02021   0.00000  -0.02021   0.00000  -0.02021   0.00000  -0.02021   0.00000  -0.02021   0.00000  -0.02021   0.00000  -0.02021   0.00000  -0.02021   0.00000  -0.02021   0.00000  -0.02021   0.00000  -0.02021   0.00000  -0.02021   0.00000  -0.02021   0.00000  -0.01391   0.00000  -0.01391   0.00000  -0.01391   0.00000  -0.01391
-11.73116   0.00000  -0.15834   0.00000  -0.02397   0.00000  -0.02397   0.00000  -0.02397   0.00000  -0.02397   0.00000  -0.03470   0.00000  -0.03470   0.00000  -0.03470   0.00000  -0.03470   0.00000  -0.03470   0.00000  -0.03470   0.00000  -0.03470   0.00000  -0.03470   0.00000  -0.37231   0.00000  -0.37230   0.00000  -0.37230   0.00000  -0.37230   0.00000  -0.53270   0.00000  -0.53270   0.00000  -0.03470   0.00000  -0.03470   0.00000  -0.03470   0.00000  -0.03470   0.00000  -0.03471   0.00000  -0.03470   0.00000  -0.03470   0.00000  -0.03470   0.00000  -0.37229   0.00000  -0.37228   0.00000  -0.37230   0.00000  -0.37230   0.00000  -0.53271   0.00000  -0.53271   0.00000  -0.02397   0.00000  -0.02397   0.00000  -0.02397   0.00000  -0.02397   0.00000  -0.53270   0.00000  -0.53271   0.00000  -0.37230   0.00000  -0.37230   0.00000  -0.37230   0.00000  -0.37229   0.00000  -0.53271   0.00000  -0.53271   0.00000  -0.37230   0.00000  -0.37229   0.00000  -0.37230   0.00000  -0.37229   0.00000  -0.01391   0.00000  -0.01391   0.00000  -0.01391   0.00000  -0.01391   0.00000  -0.02021   0.00000  -0.02021   0.00000  -0.02021   0.00000  -0.02021   0.00000  -0.02021   0.00000  -0.02021   0.00000  -0.02021   0.00000  -0.02021   0.00000  -0.02021   0.00000  -0.02021   0.00000  -0.02021   0.00000  -0.02021   0.00000  -0.02021   0.00000  -0.02021   0.00000  -0.02021   0.00000  -0.02021   0.00000  -0.01391   0.00000  -0.01391   0.00000  -0.01391   0.00000  -0.01391
-11.65829   0.00000  -0.15834   0.00000  -0.02397   0.00000  -0.02397   0.00000  -0.02397   0.00000  -0.02397   0.00000  -0.03470   0.00000  -0.03470   0.00000  -0.03470   0.00000  -0.03470   0.00000  -0.03470   0.00000  -0.03470   0.00000  -0.03470   0.00000  -0.03470   0.00000  -0.37231   0.00000  -0.37230   0.00000  -0.37230   0.00000  -0.37230   0.00000  -0.53270   0.00000  -0.53270   0.00000  -0.03470   0.00000  -0.03470   0.00000  -0.03470   0.00000  -0.03470   0.00000  -0.03471   0.00000  -0.03470   0.00000  -0.03470   0.00000  -0.03470   0.00000  -0.37229   0.00000  -0.37228   0.00000  -0.37230   0.00000  -0.37230   0.00000  -0.53271   0.00000  -0.53271   0.00000  -0.02397   0.00000  -0.02397   0.00000  -0.02397   0.00000  -0.02397   0.00000  -0.53270   0.00000  -0.53271   0.00000  -0.37230   0.00000  -0.37230   0.00000  -0.37230   0.00000  -0.37229   0.00000  -0.53271   0.00000  -0.53271   0.00000  -0.37230   0.00000  -0.37229   0.00000  -0.37230   0.00000  -0.37229   0.00000  -0.01391   0.00000  -0.01391   0.00000  -0.01391   0.00000  -0.01391   0.00000  -0.02021   0.00000  -0.02021   0.00000  -0.02021   0.00000  -0.02021   0.00000  -0.02021   0.00000  -0.02021   0.00000  -0.02021   0.00000  -0.02021   0.00000  -0.02021   0.00000  -0.02021   0.00000  -0.02021   0.00000  -0.02021   0.00000  -0.02021   0.00000  -0.02021   0.00000  -0.02021   0.00000  -0.02021   0.00000  -0.01391   0.00000  -0.01391   0.00000  -0.01391   0.00000  -0.01391
-11.58543   0.00000  -0.15834   0.00000  -0.02397   0.00000  -0.02397   0.00000  -0.02397   0.00000  -0.02397   0.00000  -0.03470   0.00000  -0.03470   0.00000  -0.03470   0.00000  -0.03470   0.00000  -0.03470   0.00000  -0.03470   0.00000  -0.03470   0.00000  -0.03470   0.00000  -0.37231   0.00000  -0.37230   0.00000  -0.37230   0.00000  -0.37230   0.00000  -0.53270   0.00000  -0.53270   0.00000  -0.03470   0.00000  -0.03470   0.00000  -0.03470   0.00000  -0.03470   0.00000  -0.03471   0.00000  -0.03470   0.00000  -0.03470   0.00000  -0.03470   0.00000  -0.37229   0.00000  -0.37228   0.00000  -0.37230   0.00000  -0.37230   0.00000  -0.53271   0.00000  -0.53271   0.00000  -0.02397   0.00000  -0.02397   0.00000  -0.02397   0.00000  -0.02397   0.00000  -0.53270   0.00000  -0.53271   0.00000  -0.37230   0.00000  -0.37230   0.00000  -0.37230   0.00000  -0.37229   0.00000  -0.53271   0.00000  -0.53271   0.00000  -0.37230   0.00000  -0.37229   0.00000  -0.37230   0.00000  -0.37229   0.00000  -0.01391   0.00000  -0.01391   0.00000  -0.01391   0.00000  -0.01391   0.00000  -0.02021   0.00000  -0.02021   0.00000  -0.02021   0.00000  -0.02021   0.00000  -0.02021   0.00000  -0.02021   0.00000  -0.02021   0.00000  -0.02021   0.00000  -0.02021   0.00000  -0.02021   0.00000  -0.02021   0.00000  -0.02021   0.00000  -0.02021   0.00000  -0.02021   0.00000  -0.02021   0.00000  -0.02021   0.00000  -0.01391   0.00000  -0.01391   0.00000  -0.01391   0.00000  -0.01391
-11.51256   0.00000  -0.15834   0.00000  -0.02397   0.00000  -0.02397   0.00000  -0.02397   0.00000  -0.02397   0.00000  -0.03470   0.00000  -0.03470   0.00000  -0.03470   0.00000  -0.03470   0.00000  -0.03470   0.00000  -0.03470   0.00000  -0.03470   0.00000  -0.03470   0.00000  -0.37231   0.00000  -0.37230   0.00000  -0.37230   0.00000  -0.37230   0.00000  -0.53270   0.00000  -0.53270   0.00000  -0.03470   0.00000  -0.03470   0.00000  -0.03470   0.00000  -0.03470   0.00000  -0.03471   0.00000  -0.03470   0.00000  -0.03470   0.00000  -0.03470   0.00000  -0.37229   0.00000  -0.37228   0.00000  -0.37230   0.00000  -0.37230   0.00000  -0.53271   0.00000  -0.53271   0.00000  -0.02397   0.00000  -0.02397   0.00000  -0.02397   0.00000  -0.02397   0.00000  -0.53270   0.00000  -0.53271   0.00000  -0.37230   0.00000  -0.37230   0.00000  -0.37230   0.00000  -0.37229   0.00000  -0.53271   0.00000  -0.53271   0.00000  -0.37230   0.00000  -0.37229   0.00000  -0.37230   0.00000  -0.37229   0.00000  -0.01391   0.00000  -0.01391   0.00000  -0.01391   0.00000  -0.01391   0.00000  -0.02021   0.00000  -0.02021   0.00000  -0.02021   0.00000  -0.02021   0.00000  -0.02021   0.00000  -0.02021   0.00000  -0.02021   0.00000  -0.02021   0.00000  -0.02021   0.00000  -0.02021   0.00000  -0.02021   0.00000  -0.02021   0.00000  -0.02021   0.00000  -0.02021   0.00000  -0.02021   0.00000  -0.02021   0.00000  -0.01391   0.00000  -0.01391   0.00000  -0.01391   0.00000  -0.01391
-11.43970   0.00000  -0.15834   0.00000  -0.02397   0.00000  -0.02397   0.00000  -0.02397   0.00000  -0.02397   0.00000  -0.03470   0.00000  -0.03470   0.00000  -0.03470   0.00000  -0.03470   0.00000  -0.03470   0.00000  -0.03470   0.00000  -0.03470   0.00000  -0.03470   0.00000  -0.37231   0.00000  -0.37230   0.00000  -0.37230   0.00000  -0.37230   0.00000  -0.53270   0.00000  -0.53270   0.00000  -0.03470   0.00000  -0.03470   0.00000  -0.03470   0.00000  -0.03470   0.00000  -0.03471   0.00000  -0.03470   0.00000  -0.03470   0.00000  -0.03470   0.00000  -0.37229   0.00000  -0.37228   0.00000  -0.37230   0.00000  -0.37230   0.00000  -0.53271   0.00000  -0.53271   0.00000  -0.02397   0.00000  -0.02397   0.00000  -0.02397   0.00000  -0.02397   0.00000  -0.53270   0.00000  -0.53271   0.00000  -0.37230   0.00000  -0.37230   0.00000  -0.37230   0.00000  -0.37229   0.00000  -0.53271   0.00000  -0.53271   0.00000  -0.37230   0.00000  -0.37229   0.00000  -0.37230   0.00000  -0.37229   0.00000  -0.01391   0.00000  -0.01391   0.00000  -0.01391   0.00000  -0.01391   0.00000  -0.02021   0.00000  -0.02021   0.00000  -0.02021   0.00000  -0.02021   0.00000  -0.02021   0.00000  -0.02021   0.00000  -0.02021   0.00000  -0.02021   0.00000  -0.02021   0.00000  -0.02021   0.00000  -0.02021   0.00000  -0.02021   0.00000  -0.02021   0.00000  -0.02021   0.00000  -0.02021   0.00000  -0.02021   0.00000  -0.01391   0.00000  -0.01391   0.00000  -0.01391   0.00000  -0.01391
-11.36683   0.00000  -0.15834   0.00000  -0.02397   0.00000  -0.02397   0.00000  -0.02397   0.00000  -0.02397   0.00000  -0.03470   0.00000  -0.03470   0.00000  -0.03470   0.00000  -0.03470   0.00000  -0.03470   0.00000  -0.03470   0.00000  -0.03470   0.00000  -0.03470   0.00000  -0.37231   0.00000  -0.37230   0.00000  -0.37230   0.00000  -0.37230   0.00000  -0.53270   0.00000  -0.53270   0.00000  -0.03470   0.00000  -0.03470   0.00000  -0.03470   0.00000  -0.03470   0.00000  -0.03471   0.00000  -0.03470   0.00000  -0.03470   0.00000  -0.03470   0.00000  -0.37229   0.00000  -0.37228   0.00000  -0.37230   0.00000  -0.37230   0.00000  -0.53271   0.00000  -0.53271   0.00000  -0.02397   0.00000  -0.02397   0.00000  -0.02397   0.00000  -0.02397   0.00000  -0.53270   0.00000  -0.53271   0.00000  -0.37230   0.00000  -0.37230   0.00000  -0.37230   0.00000  -0.37229   0.00000  -0.53271   0.00000  -0.53271   0.00000  -0.37230   0.00000  -0.37229   0.00000  -0.37230   0.00000  -0.37229   0.00000  -0.01391   0.00000  -0.01391   0.00000  -0.01391   0.00000  -0.01391   0.00000  -0.02021   0.00000  -0.02021   0.00000  -0.02021   0.00000  -0.02021   0.00000  -0.02021   0.00000  -0.02021   0.00000  -0.02021   0.00000  -0.02021   0.00000  -0.02021   0.00000  -0.02021   0.00000  -0.02021   0.00000  -0.02021   0.00000  -0.02021   0.00000  -0.02021   0.00000  -0.02021   0.00000  -0.02021   0.00000  -0.01391   0.00000  -0.01391   0.00000  -0.01391   0.00000  -0.01391
-11.29397   0.00000  -0.15834   0.00000  -0.02397   0.00000  -0.02397   0.00000  -0.02397   0.00000  -0.02397   0.00000  -0.03470   0.00000  -0.03470   0.00000  -0.03470   0.00000  -0.03470   0.00000  -0.03470   0.00000  -0.03470   0.00000  -0.03470   0.00000  -0.03470   0.00000  -0.37231   0.00000  -0.37230   0.00000  -0.37230   0.00000  -0.37230   0.00000  -0.53270   0.00000  -0.53270   0.00000  -0.03470   0.00000  -0.03470   0.00000  -0.03470   0.00000  -0.03470   0.00000  -0.03471   0.00000  -0.03470   0.00000  -0.03470   0.00000  -0.03470   0.00000  -0.37229   0.00000  -0.37228   0.00000  -0.37230   0.00000  -0.37230   0.00000  -0.53271   0.00000  -0.53271   0.00000  -0.02397   0.00000  -0.02397   0.00000  -0.02397   0.00000  -0.02397   0.00000  -0.53270   0.00000  -0.53271   0.00000  -0.37230   0.00000  -0.37230   0.00000  -0.37230   0.00000  -0.37229   0.00000  -0.53271   0.00000  -0.53271   0.00000  -0.37230   0.00000  -0.37229   0.00000  -0.37230   0.00000  -0.37229   0.00000  -0.01391   0.00000  -0.01391   0.00000  -0.01391   0.00000  -0.01391   0.00000  -0.02021   0.00000  -0.02021   0.00000  -0.02021   0.00000  -0.02021   0.00000  -0.02021   0.00000  -0.02021   0.00000  -0.02021   0.00000  -0.02021   0.00000  -0.02021   0.00000  -0.02021   0.00000  -0.02021   0.00000  -0.02021   0.00000  -0.02021   0.00000  -0.02021   0.00000  -0.02021   0.00000  -0.02021   0.00000  -0.01391   0.00000  -0.01391   0.00000  -0.01391   0.00000  -0.01391
-11.22111   0.00000  -0.15834   0.00000  -0.02397   0.00000  -0.02397   0.00000  -0.02397   0.00000  -0.02397   0.00000  -0.03470   0.00000  -0.03470   0.00000  -0.03470   0.00000  -0.03470   0.00000  -0.03470   0.00000  -0.03470   0.00000  -0.03470   0.00000  -0.03470   0.00000  -0.37231   0.00000  -0.37230   0.00000  -0.37230   0.00000  -0.37230   0.00000  -0.53270   0.00000  -0.53270   0.00000  -0.03470   0.00000  -0.03470   0.00000  -0.03470   0.00000  -0.03470   0.00000  -0.03471   0.00000  -0.03470   0.00000  -0.03470   0.00000  -0.03470   0.00000  -0.37229   0.00000  -0.37228   0.00000  -0.37230   0.00000  -0.37230   0.00000  -0.53271   0.00000  -0.53271   0.00000  -0.02397   0.00000  -0.02397   0.00000  -0.02397   0.00000  -0.02397   0.00000  -0.53270   0.00000  -0.53271   0.00000  -0.37230   0.00000  -0.37230   0.00000  -0.37230   0.00000  -0.37229   0.00000  -0.53271   0.00000  -0.53271   0.00000  -0.37230   0.00000  -0.37229   0.00000  -0.37230   0.00000  -0.37229   0.00000  -0.01391   0.00000  -0.01391   0.00000  -0.01391   0.00000  -0.01391   0.00000  -0.02021   0.00000  -0.02021   0.00000  -0.02021   0.00000  -0.02021   0.00000  -0.02021   0.00000  -0.02021   0.00000  -0.02021   0.00000  -0.02021   0.00000  -0.02021   0.00000  -0.02021   0.00000  -0.02021   0.00000  -0.02021   0.00000  -0.02021   0.00000  -0.02021   0.00000  -0.02021   0.00000  -0.02021   0.00000  -0.01391   0.00000  -0.01391   0.00000  -0.01391   0.00000  -0.01391
-11.14824   0.00000  -0.15834   0.00000  -0.02397   0.00000  -0.02397   0.00000  -0.02397   0.00000  -0.02397   0.00000  -0.03470   0.00000  -0.03470   0.00000  -0.03470   0.00000  -0.03470   0.00000  -0.03470   0.00000  -0.03470   0.00000  -0.03470   0.00000  -0.03470   0.00000  -0.37231   0.00000  -0.37230   0.00000  -0.37230   0.00000  -0.37230   0.00000  -0.53270   0.00000  -0.53270   0.00000  -0.03470   0.00000  -0.03470   0.00000  -0.03470   0.00000  -0.03470   0.00000  -0.03471   0.00000  -0.03470   0.00000  -0.03470   0.00000  -0.03470   0.00000  -0.37229   0.00000  -0.37228   0.00000  -0.37230   0.00000  -0.37230   0.00000  -0.53271   0.00000  -0.53271   0.00000  -0.02397   0.00000  -0.02397   0.00000  -0.02397   0.00000  -0.02397   0.00000  -0.53270   0.00000  -0.53271   0.00000  -0.37230   0.00000  -0.37230   0.00000  -0.37230   0.00000  -0.37229   0.00000  -0.53271   0.00000  -0.53271   0.00000  -0.37230   0.00000  -0.37229   0.00000  -0.37230   0.00000  -0.37229   0.00000  -0.01391   0.00000  -0.01391   0.00000  -0.01391   0.00000  -0.01391   0.00000  -0.02021   0.00000  -0.02021   0.00000  -0.02021   0.00000  -0.02021   0.00000  -0.02021   0.00000  -0.02021   0.00000  -0.02021   0.00000  -0.02021   0.00000  -0.02021   0.00000  -0.02021   0.00000  -0.02021   0.00000  -0.02021   0.00000  -0.02021   0.00000  -0.02021   0.00000  -0.02021   0.00000  -0.02021   0.00000  -0.01391   0.00000  -0.01391   0.00000  -0.01391   0.00000  -0.01391
-11.07538   0.00000  -0.15834   0.00000  -0.02397   0.00000  -0.02397   0.00000  -0.02397   0.00000  -0.02397   0.00000  -0.03470   0.00000  -0.03470   0.00000  -0.03470   0.00000  -0.03470   0.00000  -0.03470   0.00000  -0.03470   0.00000  -0.03470   0.00000  -0.03470   0.00000  -0.37231   0.00000  -0.37230   0.00000  -0.37230   0.00000  -0.37230   0.00000  -0.53270   0.00000  -0.53270   0.00000  -0.03470   0.00000  -0.03470   0.00000  -0.03470   0.00000  -0.03470   0.00000  -0.03471   0.00000  -0.03470   0.00000  -0.03470   0.00000  -0.03470   0.00000  -0.37229   0.00000  -0.37228   0.00000  -0.37230   0.00000  -0.37230   0.00000  -0.53271   0.00000  -0.53271   0.00000  -0.02397   0.00000  -0.02397   0.00000  -0.02397   0.00000  -0.02397   0.00000  -0.53270   0.00000  -0.53271   0.00000  -0.37230   0.00000  -0.37230   0.00000  -0.37230   0.00000  -0.37229   0.00000  -0.53271   0.00000  -0.53271   0.00000  -0.37230   0.00000  -0.37229   0.00000  -0.37230   0.00000  -0.37229   0.00000  -0.01391   0.00000  -0.01391   0.00000  -0.01391   0.00000  -0.01391   0.00000  -0.02021   0.00000  -0.02021   0.00000  -0.02021   0.00000  -0.02021   0.00000  -0.02021   0.00000  -0.02021   0.00000  -0.02021   0.00000  -0.02021   0.00000  -0.02021   0.00000  -0.02021   0.00000  -0.02021   0.00000  -0.02021   0.00000  -0.02021   0.00000  -0.02021   0.00000  -0.02021   0.00000  -0.02021   0.00000  -0.01391   0.00000  -0.01391   0.00000  -0.01391   0.00000  -0.01391
-11.00251   0.00000  -0.15834   0.00000  -0.02397   0.00000  -0.02397   0.00000  -0.02397   0.00000  -0.02397   0.00000  -0.03470   0.00000  -0.03470   0.00000  -0.03470   0.00000  -0.03470   0.00000  -0.03470   0.00000  -0.03470   0.00000  -0.03470   0.00000  -0.03470   0.00000  -0.37231   0.00000  -0.37230   0.00000  -0.37230   0.00000  -0.37230   0.00000  -0.53270   0.00000  -0.53270   0.00000  -0.03470   0.00000  -0.03470   0.00000  -0.03470   0.00000  -0.03470   0.00000  -0.03471   0.00000  -0.03470   0.00000  -0.03470   0.00000  -0.03470   0.00000  -0.37229   0.00000  -0.37228   0.00000  -0.37230   0.00000  -0.37230   0.00000  -0.53271   0.00000  -0.53271   0.00000  -0.02397   0.00000  -0.02397   0.00000  -0.02397   0.00000  -0.02397   0.00000  -0.53270   0.00000  -0.53271   0.00000  -0.37230   0.00000  -0.37230   0.00000  -0.37230   0.00000  -0.37229   0.00000  -0.53271   0.00000  -0.53271   0.00000  -0.37230   0.00000  -0.37229   0.00000  -0.37230   0.00000  -0.37229   0.00000  -0.01391   0.00000  -0.01391   0.00000  -0.01391   0.00000  -0.01391   0.00000  -0.02021   0.00000  -0.02021   0.00000  -0.02021   0.00000  -0.02021   0.00000  -0.02021   0.00000  -0.02021   0.00000  -0.02021   0.00000  -0.02021   0.00000  -0.02021   0.00000  -0.02021   0.00000  -0.02021   0.00000  -0.02021   0.00000  -0.02021   0.00000  -0.02021   0.00000  -0.02021   0.00000  -0.02021   0.00000  -0.01391   0.00000  -0.01391   0.00000  -0.01391   0.00000  -0.01391
-10.92965   0.00000  -0.15834   0.00000  -0.02397   0.00000  -0.02397   0.00000  -0.02397   0.00000  -0.02397   0.00000  -0.03470   0.00000  -0.03470   0.00000  -0.03470   0.00000  -0.03470   0.00000  -0.03470   0.00000  -0.03470   0.00000  -0.03470   0.00000  -0.03470   0.00000  -0.37231   0.00000  -0.37230   0.00000  -0.37230   0.00000  -0.37230   0.00000  -0.53270   0.00000  -0.53270   0.00000  -0.03470   0.00000  -0.03470   0.00000  -0.03470   0.00000  -0.03470   0.00000  -0.03471   0.00000  -0.03470   0.00000  -0.03470   0.00000  -0.03470   0.00000  -0.37229   0.00000  -0.37228   0.00000  -0.37230   0.00000  -0.37230   0.00000  -0.53271   0.00000  -0.53271   0.00000  -0.02397   0.00000  -0.02397   0.00000  -0.02397   0.00000  -0.02397   0.00000  -0.53270   0.00000  -0.53271   0.00000  -0.37230   0.00000  -0.37230   0.00000  -0.37230   0.00000  -0.37229   0.00000  -0.53271   0.00000  -0.53271   0.00000  -0.37230   0.00000  -0.37229   0.00000  -0.37230   0.00000  -0.37229   0.00000  -0.01391   0.00000  -0.01391   0.00000  -0.01391   0.00000  -0.01391   0.00000  -0.02021   0.00000  -0.02021   0.00000  -0.02021   0.00000  -0.02021   0.00000  -0.02021   0.00000  -0.02021   0.00000  -0.02021   0.00000  -0.02021   0.00000  -0.02021   0.00000  -0.02021   0.00000  -0.02021   0.00000  -0.02021   0.00000  -0.02021   0.00000  -0.02021   0.00000  -0.02021   0.00000  -0.02021   0.00000  -0.01391   0.00000  -0.01391   0.00000  -0.01391   0.00000  -0.01391
-10.85678   0.00000  -0.15834   0.00000  -0.02397   0.00000  -0.02397   0.00000  -0.02397   0.00000  -0.02397   0.00000  -0.03470   0.00000  -0.03470   0.00000  -0.03470   0.00000  -0.03470   0.00000  -0.03470   0.00000  -0.03470   0.00000  -0.03470   0.00000  -0.03470   0.00000  -0.37231   0.00000  -0.37230   0.00000  -0.37230   0.00000  -0.37230   0.00000  -0.53270   0.00000  -0.53270   0.00000  -0.03470   0.00000  -0.03470   0.00000  -0.03470   0.00000  -0.03470   0.00000  -0.03471   0.00000  -0.03470   0.00000  -0.03470   0.00000  -0.03470   0.00000  -0.37229   0.00000  -0.37228   0.00000  -0.37230   0.00000  -0.37230   0.00000  -0.53271   0.00000  -0.53271   0.00000  -0.02397   0.00000  -0.02397   0.00000  -0.02397   0.00000  -0.02397   0.00000  -0.53270   0.00000  -0.53271   0.00000  -0.37230   0.00000  -0.37230   0.00000  -0.37230   0.00000  -0.37229   0.00000  -0.53271   0.00000  -0.53271   0.00000  -0.37230   0.00000  -0.37229   0.00000  -0.37230   0.00000  -0.37229   0.00000  -0.01391   0.00000  -0.01391   0.00000  -0.01391   0.00000  -0.01391   0.00000  -0.02021   0.00000  -0.02021   0.00000  -0.02021   0.00000  -0.02021   0.00000  -0.02021   0.00000  -0.02021   0.00000  -0.02021   0.00000  -0.02021   0.00000  -0.02021   0.00000  -0.02021   0.00000  -0.02021   0.00000  -0.02021   0.00000  -0.02021   0.00000  -0.02021   0.00000  -0.02021   0.00000  -0.02021   0.00000  -0.01391   0.00000  -0.01391   0.00000  -0.01391   0.00000  -0.01391
-10.78392   0.00000  -0.15834   0.00000  -0.02397   0.00000  -0.02397   0.00000  -0.02397   0.00000  -0.02397   0.00000  -0.03470   0.00000  -0.03470   0.00000  -0.03470   0.00000  -0.03470   0.00000  -0.03470   0.00000  -0.03470   0.00000  -0.03470   0.00000  -0.03470   0.00000  -0.37231   0.00000  -0.37230   0.00000  -0.37230   0.00000  -0.37230   0.00000  -0.53270   0.00000  -0.53270   0.00000  -0.03470   0.00000  -0.03470   0.00000  -0.03470   0.00000  -0.03470   0.00000  -0.03471   0.00000  -0.03470   0.00000  -0.03470   0.00000  -0.03470   0.00000  -0.37229   0.00000  -0.37228   0.00000  -0.37230   0.00000  -0.37230   0.00000  -0.53271   0.00000  -0.53271   0.00000  -0.02397   0.00000  -0.02397   0.00000  -0.02397   0.00000  -0.02397   0.00000  -0.53270   0.00000  -0.53271   0.00000  -0.37230   0.00000  -0.37230   0.00000  -0.37230   0.00000  -0.37229   0.00000  -0.53271   0.00000  -0.53271   0.00000  -0.37230   0.00000  -0.37229   0.00000  -0.37230   0.00000  -0.37229   0.00000  -0.01391   0.00000  -0.01391   0.00000  -0.01391   0.00000  -0.01391   0.00000  -0.02021   0.00000  -0.02021   0.00000  -0.02021   0.00000  -0.02021   0.00000  -0.02021   0.00000  -0.02021   0.00000  -0.02021   0.00000  -0.02021   0.00000  -0.02021   0.00000  -0.02021   0.00000  -0.02021   0.00000  -0.02021   0.00000  -0.02021   0.00000  -0.02021   0.00000  -0.02021   0.00000  -0.02021   0.00000  -0.01391   0.00000  -0.01391   0.00000  -0.01391   0.00000  -0.01391