   8    8    1    1
  1.8045785e+02   5.6509994e-10   5.6509994e-10   5.6509994e-10   5.0000000e-16
            1.000000e-04
  CAR
 DOS and projected DOS file by LOBSTER. Energy is shifted such that the Fermi level lies at 0 eV. 
      2.02211809     -12.55074624   201      -0.52813317       1.00000000
-12.02261   0.00000   7.99998
-11.94975   0.00000   7.99998
-11.87688   0.00000   7.99998
-11.80402   0.00000   7.99998
-11.73116   0.00000   7.99998
-11.65829   0.00000   7.99998
-11.58543   0.00000   7.99998
-11.51256   0.00000   7.99998
-11.43970   0.00000   7.99998
-11.36683   0.00000   7.99998
-11.29397   0.00000   7.99998
-11.22111   0.00000   7.99998
-11.14824   0.00000   7.99998
-11.07538   0.00000   7.99998
-11.00251   0.00000   7.99998
-10.92965   0.00000   7.99998
-10.85678   0.00000   7.99998
-10.78392   0.00000   7.99998
-10.71106   0.00000   7.99998
-10.63819   0.00000   7.99998
-10.56533   0.00000   7.99998
-10.49246   0.00000   7.99998
-10.41960   0.00000   7.99998
-10.34673   0.00000   7.99998
-10.27387   0.00000   7.99998
-10.20101   0.00000   7.99998
-10.12814   0.00000   7.99998
-10.05528   0.00000   7.99998
 -9.98241   0.00000   7.99998
 -9.90955   0.00000   7.99998
 -9.83668   0.00000   7.99998
 -9.76382   0.00000   7.99998
 -9.69095   0.00000   7.99998
 -9.61809   0.00000   7.99998
 -9.54523   0.00000   7.99998
 -9.47236   0.00000   7.99998
 -9.39950   0.00000   7.99998
 -9.32663   0.00000   7.99998
 -9.25377   0.00000   7.99998
 -9.18090   0.00000   7.99998
 -9.10804   0.00000   7.99998
 -9.03518   0.00000   7.99998
 -8.96231   0.00000   7.99998
 -8.88945   0.00000   7.99998
 -8.81658   0.00000   7.99998
 -8.74372   0.00000   7.99998
 -8.67085   0.00000   7.99998
 -8.59799   0.00000   7.99998
 -8.52513   0.00000   7.99998
 -8.45226   0.00000   7.99998
 -8.37940   0.00000   7.99998
 -8.30653   0.00000   7.99998
 -8.23367   0.00000   7.99998
 -8.16080   0.00000   7.99998
 -8.08794   0.00000   7.99998
 -8.01508   0.00000   7.99998
 -7.94221   0.00000   7.99998
 -7.86935   0.00000   7.99998
 -7.79648   0.00000   7.99998
 -7.72362   0.00000   7.99998
 -7.65075   0.00000   7.99998
 -7.57789   0.00000   7.99998
 -7.50503   0.00000   7.99998
 -7.43216   0.00000   7.99998
 -7.35930   0.00000   7.99998
 -7.28643   0.00000   7.99998
 -7.21357   0.00000   7.99998
 -7.14070   0.00000   7.99998
 -7.06784   0.00000   7.99998
 -6.99497   0.00000   7.99998
 -6.92211   0.00000   7.99998
 -6.84925   0.00000   7.99998
 -6.77638   0.00000   7.99998
 -6.70352   0.00000   7.99998
 -6.63065   0.00000   7.99998
 -6.55779   0.00000   7.99998
 -6.48492   0.00000   7.99998
 -6.41206   0.00000   7.99998
 -6.33920   0.00000   7.99998
 -6.26633   0.00000   7.99998
 -6.19347   0.00000   7.99998
 -6.12060   0.00000   7.99998
 -6.04774   0.00000   7.99998
 -5.97487   0.00000   7.99998
 -5.90201   0.00000   7.99998
 -5.82915   0.00000   7.99998
 -5.75628   0.00000   7.99998
 -5.68342   0.00000   7.99998
 -5.61055   0.00000   7.99998
 -5.53769   0.00000   7.99998
 -5.46482   0.00000   7.99998
 -5.39196   0.00000   7.99998
 -5.31910   0.00000   7.99998
 -5.24623   0.00000   7.99998
 -5.17337   0.00000   7.99998
 -5.10050   0.00000   7.99998
 -5.02764   0.00000   7.99998
 -4.95477   0.00000   7.99998
 -4.88191   0.00000   7.99998
 -4.80905   0.00000   7.99998
 -4.73618   0.00000   7.99998
 -4.66332   0.00000   7.99998
 -4.59045   0.00000   7.99998
 -4.51759   0.00000   7.99998
 -4.44472   0.00000   7.99998
 -4.37186   0.00000   7.99998
 -4.29899   0.00000   7.99998
 -4.22613   0.00000   7.99998
 -4.15327   0.00000   7.99998
 -4.08040   0.00000   7.99998
 -4.00754   0.00000   7.99998
 -3.93467   0.00000   7.99998
 -3.86181   0.00000   7.99998
 -3.78894   0.00000   7.99998
 -3.71608   0.00000   7.99998
 -3.64322   0.00000   7.99998
 -3.57035   0.00000   7.99998
 -3.49749   0.00000   7.99998
 -3.42462   0.00000   7.99998
 -3.35176   0.00000   7.99998
 -3.27889   0.00000   7.99998
 -3.20603   0.00000   7.99998
 -3.13317   0.00000   7.99998
 -3.06030   0.00000   7.99998
 -2.98744   0.00000   7.99998
 -2.91457   0.00000   7.99998
 -2.84171   0.00000   7.99998
 -2.76884   0.00000   7.99998
 -2.69598   0.00000   7.99998
 -2.62312   0.00000   7.99998
 -2.55025   0.00000   7.99998
 -2.47739   0.00000   7.99998
 -2.40452   0.00000   7.99998
 -2.33166   0.00000   7.99998
 -2.25879   0.00000   7.99998
 -2.18593   0.00000   7.99998
 -2.11307   0.00000   7.99998
 -2.04020   0.00000   7.99998
 -1.96734   0.00000   7.99998
 -1.89447   0.33511   8.02440
 -1.82161   2.44787   8.20276
 -1.74874   4.27511   8.51426
 -1.67588   5.90232   8.94433
 -1.60302  11.35320   9.77158
 -1.53015  20.81032  11.28790
 -1.45729  24.86317  13.09954
 -1.38442  13.31225  14.06953
 -1.31156   7.29344  14.60096
 -1.23869   3.98854  14.89158
 -1.16583   3.62253  15.15554
 -1.09296   5.99175  15.59212
 -1.02010   7.36906  16.12906
 -0.94724   9.69054  16.83516
 -0.87437  10.46510  17.59769
 -0.80151  10.37039  18.35332
 -0.72864  10.44242  19.11420
 -0.65578  14.15461  20.14557
 -0.58291  23.34858  21.84685
 -0.51005  20.38421  23.33213
 -0.43719  27.88699  25.36410
 -0.36432  23.71740  27.09225
 -0.29146  26.51226  29.02405
 -0.21859  20.24722  30.49935
 -0.14573  12.17930  31.38678
 -0.07286   7.23849  31.91421
  0.00000   1.17628  31.99992
  0.07286   0.00000  31.99992
  0.14573   0.00000  31.99992
  0.21859   0.00000  31.99992
  0.29146   0.00000  31.99992
  0.36432   0.00000  31.99992
  0.43719   0.00000  31.99992
  0.51005   0.00000  31.99992
  0.58291   0.00000  31.99992
  0.65578   0.00000  31.99992
  0.72864   0.00000  31.99992
  0.80151   0.00000  31.99992
  0.87437   0.00000  31.99992
  0.94724   0.00000  31.99992
  1.02010   0.00000  31.99992
  1.09296   0.00000  31.99992
  1.16583   0.00000  31.99992
  1.23869   0.00000  31.99992
  1.31156   0.00000  31.99992
  1.38442   0.00000  31.99992
  1.45729   0.00000  31.99992
  1.53015   0.00000  31.99992
  1.60302   0.00000  31.99992
  1.67588   0.00000  31.99992
  1.74874   0.00000  31.99992
  1.82161   0.00000  31.99992
  1.89447   0.00000  31.99992
  1.96734   0.00000  31.99992
  2.04020   0.00000  31.99992
  2.11307   0.00000  31.99992
  2.18593   0.00000  31.99992
  2.25879   0.00000  31.99992
  2.33166   0.00000  31.99992
  2.40452   0.00000  31.99992
  2.47739   0.00000  31.99992
  2.55025   0.00000  31.99992
      2.55025126     -12.02261307   201      -0.52813317       1.00000000; Z= 11; 3s 
-12.02261   0.00000
-11.94975   0.00000
-11.87688   0.00000
-11.80402   0.00000
-11.73116   0.00000
-11.65829   0.00000
-11.58543   0.00000
-11.51256   0.00000
-11.43970   0.00000
-11.36683   0.00000
-11.29397   0.00000
-11.22111   0.00000
-11.14824   0.00000
-11.07538   0.00000
-11.00251   0.00000
-10.92965   0.00000
-10.85678   0.00000
-10.78392   0.00000
-10.71106   0.00000
-10.63819   0.00000
-10.56533   0.00000
-10.49246   0.00000
-10.41960   0.00000
-10.34673   0.00000
-10.27387   0.00000
-10.20101   0.00000
-10.12814   0.00000
-10.05528   0.00000
 -9.98241   0.00000
 -9.90955   0.00000
 -9.83668   0.00000
 -9.76382   0.00000
 -9.69095   0.00000
 -9.61809   0.00000
 -9.54523   0.00000
 -9.47236   0.00000
 -9.39950   0.00000
 -9.32663   0.00000
 -9.25377   0.00000
 -9.18090   0.00000
 -9.10804   0.00000
 -9.03518   0.00000
 -8.96231   0.00000
 -8.88945   0.00000
 -8.81658   0.00000
 -8.74372   0.00000
 -8.67085   0.00000
 -8.59799   0.00000
 -8.52513   0.00000
 -8.45226   0.00000
 -8.37940   0.00000
 -8.30653   0.00000
 -8.23367   0.00000
 -8.16080   0.00000
 -8.08794   0.00000
 -8.01508   0.00000
 -7.94221   0.00000
 -7.86935   0.00000
 -7.79648   0.00000
 -7.72362   0.00000
 -7.65075   0.00000
 -7.57789   0.00000
 -7.50503   0.00000
 -7.43216   0.00000
 -7.35930   0.00000
 -7.28643   0.00000
 -7.21357   0.00000
 -7.14070   0.00000
 -7.06784   0.00000
 -6.99497   0.00000
 -6.92211   0.00000
 -6.84925   0.00000
 -6.77638   0.00000
 -6.70352   0.00000
 -6.63065   0.00000
 -6.55779   0.00000
 -6.48492   0.00000
 -6.41206   0.00000
 -6.33920   0.00000
 -6.26633   0.00000
 -6.19347   0.00000
 -6.12060   0.00000
 -6.04774   0.00000
 -5.97487   0.00000
 -5.90201   0.00000
 -5.82915   0.00000
 -5.75628   0.00000
 -5.68342   0.00000
 -5.61055   0.00000
 -5.53769   0.00000
 -5.46482   0.00000
 -5.39196   0.00000
 -5.31910   0.00000
 -5.24623   0.00000
 -5.17337   0.00000
 -5.10050   0.00000
 -5.02764   0.00000
 -4.95477   0.00000
 -4.88191   0.00000
 -4.80905   0.00000
 -4.73618   0.00000
 -4.66332   0.00000
 -4.59045   0.00000
 -4.51759   0.00000
 -4.44472   0.00000
 -4.37186   0.00000
 -4.29899   0.00000
 -4.22613   0.00000
 -4.15327   0.00000
 -4.08040   0.00000
 -4.00754   0.00000
 -3.93467   0.00000
 -3.86181   0.00000
 -3.78894   0.00000
 -3.71608   0.00000
 -3.64322   0.00000
 -3.57035   0.00000
 -3.49749   0.00000
 -3.42462   0.00000
 -3.35176   0.00000
 -3.27889   0.00000
 -3.20603   0.00000
 -3.13317   0.00000
 -3.06030   0.00000
 -2.98744   0.00000
 -2.91457   0.00000
 -2.84171   0.00000
 -2.76884   0.00000
 -2.69598   0.00000
 -2.62312   0.00000
 -2.55025   0.00000
 -2.47739   0.00000
 -2.40452   0.00000
 -2.33166   0.00000
 -2.25879   0.00000
 -2.18593   0.00000
 -2.11307   0.00000
 -2.04020   0.00000
 -1.96734   0.00000
 -1.89447   0.01057
 -1.82161   0.07230
 -1.74874   0.11555
 -1.67588   0.14816
 -1.60302   0.20845
 -1.53015   0.34420
 -1.45729   0.43155
 -1.38442   0.20183
 -1.31156   0.10253
 -1.23869   0.06386
 -1.16583   0.03775
 -1.09296   0.04044
 -1.02010   0.04868
 -0.94724   0.04909
 -0.87437   0.03479
 -0.80151   0.02909
 -0.72864   0.02579
 -0.65578   0.04715
 -0.58291   0.06105
 -0.51005   0.03013
 -0.43719   0.02330
 -0.36432   0.00942
 -0.29146   0.00470
 -0.21859   0.00284
 -0.14573   0.00146
 -0.07286   0.00055
  0.00000   0.00003
  0.07286   0.00000
  0.14573   0.00000
  0.21859   0.00000
  0.29146   0.00000
  0.36432   0.00000
  0.43719   0.00000
  0.51005   0.00000
  0.58291   0.00000
  0.65578   0.00000
  0.72864   0.00000
  0.80151   0.00000
  0.87437   0.00000
  0.94724   0.00000
  1.02010   0.00000
  1.09296   0.00000
  1.16583   0.00000
  1.23869   0.00000
  1.31156   0.00000
  1.38442   0.00000
  1.45729   0.00000
  1.53015   0.00000
  1.60302   0.00000
  1.67588   0.00000
  1.74874   0.00000
  1.82161   0.00000
  1.89447   0.00000
  1.96734   0.00000
  2.04020   0.00000
  2.11307   0.00000
  2.18593   0.00000
  2.25879   0.00000
  2.33166   0.00000
  2.40452   0.00000
  2.47739   0.00000
  2.55025   0.00000
      2.55025126     -12.02261307   201      -0.52813317       1.00000000; Z= 11; 3s 
-12.02261   0.00000
-11.94975   0.00000
-11.87688   0.00000
-11.80402   0.00000
-11.73116   0.00000
-11.65829   0.00000
-11.58543   0.00000
-11.51256   0.00000
-11.43970   0.00000
-11.36683   0.00000
-11.29397   0.00000
-11.22111   0.00000
-11.14824   0.00000
-11.07538   0.00000
-11.00251   0.00000
-10.92965   0.00000
-10.85678   0.00000
-10.78392   0.00000
-10.71106   0.00000
-10.63819   0.00000
-10.56533   0.00000
-10.49246   0.00000
-10.41960   0.00000
-10.34673   0.00000
-10.27387   0.00000
-10.20101   0.00000
-10.12814   0.00000
-10.05528   0.00000
 -9.98241   0.00000
 -9.90955   0.00000
 -9.83668   0.00000
 -9.76382   0.00000
 -9.69095   0.00000
 -9.61809   0.00000
 -9.54523   0.00000
 -9.47236   0.00000
 -9.39950   0.00000
 -9.32663   0.00000
 -9.25377   0.00000
 -9.18090   0.00000
 -9.10804   0.00000
 -9.03518   0.00000
 -8.96231   0.00000
 -8.88945   0.00000
 -8.81658   0.00000
 -8.74372   0.00000
 -8.67085   0.00000
 -8.59799   0.00000
 -8.52513   0.00000
 -8.45226   0.00000
 -8.37940   0.00000
 -8.30653   0.00000
 -8.23367   0.00000
 -8.16080   0.00000
 -8.08794   0.00000
 -8.01508   0.00000
 -7.94221   0.00000
 -7.86935   0.00000
 -7.79648   0.00000
 -7.72362   0.00000
 -7.65075   0.00000
 -7.57789   0.00000
 -7.50503   0.00000
 -7.43216   0.00000
 -7.35930   0.00000
 -7.28643   0.00000
 -7.21357   0.00000
 -7.14070   0.00000
 -7.06784   0.00000
 -6.99497   0.00000
 -6.92211   0.00000
 -6.84925   0.00000
 -6.77638   0.00000
 -6.70352   0.00000
 -6.63065   0.00000
 -6.55779   0.00000
 -6.48492   0.00000
 -6.41206   0.00000
 -6.33920   0.00000
 -6.26633   0.00000
 -6.19347   0.00000
 -6.12060   0.00000
 -6.04774   0.00000
 -5.97487   0.00000
 -5.90201   0.00000
 -5.82915   0.00000
 -5.75628   0.00000
 -5.68342   0.00000
 -5.61055   0.00000
 -5.53769   0.00000
 -5.46482   0.00000
 -5.39196   0.00000
 -5.31910   0.00000
 -5.24623   0.00000
 -5.17337   0.00000
 -5.10050   0.00000
 -5.02764   0.00000
 -4.95477   0.00000
 -4.88191   0.00000
 -4.80905   0.00000
 -4.73618   0.00000
 -4.66332   0.00000
 -4.59045   0.00000
 -4.51759   0.00000
 -4.44472   0.00000
 -4.37186   0.00000
 -4.29899   0.00000
 -4.22613   0.00000
 -4.15327   0.00000
 -4.08040   0.00000
 -4.00754   0.00000
 -3.93467   0.00000
 -3.86181   0.00000
 -3.78894   0.00000
 -3.71608   0.00000
 -3.64322   0.00000
 -3.57035   0.00000
 -3.49749   0.00000
 -3.42462   0.00000
 -3.35176   0.00000
 -3.27889   0.00000
 -3.20603   0.00000
 -3.13317   0.00000
 -3.06030   0.00000
 -2.98744   0.00000
 -2.91457   0.00000
 -2.84171   0.00000
 -2.76884   0.00000
 -2.69598   0.00000
 -2.62312   0.00000
 -2.55025   0.00000
 -2.47739   0.00000
 -2.40452   0.00000
 -2.33166   0.00000
 -2.25879   0.00000
 -2.18593   0.00000
 -2.11307   0.00000
 -2.04020   0.00000
 -1.96734   0.00000
 -1.89447   0.01133
 -1.82161   0.07396
 -1.74874   0.11374
 -1.67588   0.14841
 -1.60302   0.20824
 -1.53015   0.34474
 -1.45729   0.43030
 -1.38442   0.20182
 -1.31156   0.10256
 -1.23869   0.06390
 -1.16583   0.03776
 -1.09296   0.04043
 -1.02010   0.04867
 -0.94724   0.04900
 -0.87437   0.03451
 -0.80151   0.02908
 -0.72864   0.02568
 -0.65578   0.04728
 -0.58291   0.06136
 -0.51005   0.03015
 -0.43719   0.02329
 -0.36432   0.00946
 -0.29146   0.00471
 -0.21859   0.00284
 -0.14573   0.00146
 -0.07286   0.00055
  0.00000   0.00003
  0.07286   0.00000
  0.14573   0.00000
  0.21859   0.00000
  0.29146   0.00000
  0.36432   0.00000
  0.43719   0.00000
  0.51005   0.00000
  0.58291   0.00000
  0.65578   0.00000
  0.72864   0.00000
  0.80151   0.00000
  0.87437   0.00000
  0.94724   0.00000
  1.02010   0.00000
  1.09296   0.00000
  1.16583   0.00000
  1.23869   0.00000
  1.31156   0.00000
  1.38442   0.00000
  1.45729   0.00000
  1.53015   0.00000
  1.60302   0.00000
  1.67588   0.00000
  1.74874   0.00000
  1.82161   0.00000
  1.89447   0.00000
  1.96734   0.00000
  2.04020   0.00000
  2.11307   0.00000
  2.18593   0.00000
  2.25879   0.00000
  2.33166   0.00000
  2.40452   0.00000
  2.47739   0.00000
  2.55025   0.00000
      2.55025126     -12.02261307   201      -0.52813317       1.00000000; Z= 11; 3s 
-12.02261   0.00000
-11.94975   0.00000
-11.87688   0.00000
-11.80402   0.00000
-11.73116   0.00000
-11.65829   0.00000
-11.58543   0.00000
-11.51256   0.00000
-11.43970   0.00000
-11.36683   0.00000
-11.29397   0.00000
-11.22111   0.00000
-11.14824   0.00000
-11.07538   0.00000
-11.00251   0.00000
-10.92965   0.00000
-10.85678   0.00000
-10.78392   0.00000
-10.71106   0.00000
-10.63819   0.00000
-10.56533   0.00000
-10.49246   0.00000
-10.41960   0.00000
-10.34673   0.00000
-10.27387   0.00000
-10.20101   0.00000
-10.12814   0.00000
-10.05528   0.00000
 -9.98241   0.00000
 -9.90955   0.00000
 -9.83668   0.00000
 -9.76382   0.00000
 -9.69095   0.00000
 -9.61809   0.00000
 -9.54523   0.00000
 -9.47236   0.00000
 -9.39950   0.00000
 -9.32663   0.00000
 -9.25377   0.00000
 -9.18090   0.00000
 -9.10804   0.00000
 -9.03518   0.00000
 -8.96231   0.00000
 -8.88945   0.00000
 -8.81658   0.00000
 -8.74372   0.00000
 -8.67085   0.00000
 -8.59799   0.00000
 -8.52513   0.00000
 -8.45226   0.00000
 -8.37940   0.00000
 -8.30653   0.00000
 -8.23367   0.00000
 -8.16080   0.00000
 -8.08794   0.00000
 -8.01508   0.00000
 -7.94221   0.00000
 -7.86935   0.00000
 -7.79648   0.00000
 -7.72362   0.00000
 -7.65075   0.00000
 -7.57789   0.00000
 -7.50503   0.00000
 -7.43216   0.00000
 -7.35930   0.00000
 -7.28643   0.00000
 -7.21357   0.00000
 -7.14070   0.00000
 -7.06784   0.00000
 -6.99497   0.00000
 -6.92211   0.00000
 -6.84925   0.00000
 -6.77638   0.00000
 -6.70352   0.00000
 -6.63065   0.00000
 -6.55779   0.00000
 -6.48492   0.00000
 -6.41206   0.00000
 -6.33920   0.00000
 -6.26633   0.00000
 -6.19347   0.00000
 -6.12060   0.00000
 -6.04774   0.00000
 -5.97487   0.00000
 -5.90201   0.00000
 -5.82915   0.00000
 -5.75628   0.00000
 -5.68342   0.00000
 -5.61055   0.00000
 -5.53769   0.00000
 -5.46482   0.00000
 -5.39196   0.00000
 -5.31910   0.00000
 -5.24623   0.00000
 -5.17337   0.00000
 -5.10050   0.00000
 -5.02764   0.00000
 -4.95477   0.00000
 -4.88191   0.00000
 -4.80905   0.00000
 -4.73618   0.00000
 -4.66332   0.00000
 -4.59045   0.00000
 -4.51759   0.00000
 -4.44472   0.00000
 -4.37186   0.00000
 -4.29899   0.00000
 -4.22613   0.00000
 -4.15327   0.00000
 -4.08040   0.00000
 -4.00754   0.00000
 -3.93467   0.00000
 -3.86181   0.00000
 -3.78894   0.00000
 -3.71608   0.00000
 -3.64322   0.00000
 -3.57035   0.00000
 -3.49749   0.00000
 -3.42462   0.00000
 -3.35176   0.00000
 -3.27889   0.00000
 -3.20603   0.00000
 -3.13317   0.00000
 -3.06030   0.00000
 -2.98744   0.00000
 -2.91457   0.00000
 -2.84171   0.00000
 -2.76884   0.00000
 -2.69598   0.00000
 -2.62312   0.00000
 -2.55025   0.00000
 -2.47739   0.00000
 -2.40452   0.00000
 -2.33166   0.00000
 -2.25879   0.00000
 -2.18593   0.00000
 -2.11307   0.00000
 -2.04020   0.00000
 -1.96734   0.00000
 -1.89447   0.01038
 -1.82161   0.07163
 -1.74874   0.11592
 -1.67588   0.14798
 -1.60302   0.20850
 -1.53015   0.34409
 -1.45729   0.43221
 -1.38442   0.20189
 -1.31156   0.10255
 -1.23869   0.06389
 -1.16583   0.03776
 -1.09296   0.04045
 -1.02010   0.04870
 -0.94724   0.04913
 -0.87437   0.03486
 -0.80151   0.02906
 -0.72864   0.02578
 -0.65578   0.04709
 -0.58291   0.06095
 -0.51005   0.03013
 -0.43719   0.02330
 -0.36432   0.00940
 -0.29146   0.00470
 -0.21859   0.00284
 -0.14573   0.00146
 -0.07286   0.00055
  0.00000   0.00003
  0.07286   0.00000
  0.14573   0.00000
  0.21859   0.00000
  0.29146   0.00000
  0.36432   0.00000
  0.43719   0.00000
  0.51005   0.00000
  0.58291   0.00000
  0.65578   0.00000
  0.72864   0.00000
  0.80151   0.00000
  0.87437   0.00000
  0.94724   0.00000
  1.02010   0.00000
  1.09296   0.00000
  1.16583   0.00000
  1.23869   0.00000
  1.31156   0.00000
  1.38442   0.00000
  1.45729   0.00000
  1.53015   0.00000
  1.60302   0.00000
  1.67588   0.00000
  1.74874   0.00000
  1.82161   0.00000
  1.89447   0.00000
  1.96734   0.00000
  2.04020   0.00000
  2.11307   0.00000
  2.18593   0.00000
  2.25879   0.00000
  2.33166   0.00000
  2.40452   0.00000
  2.47739   0.00000
  2.55025   0.00000
      2.55025126     -12.02261307   201      -0.52813317       1.00000000; Z= 11; 3s 
-12.02261   0.00000
-11.94975   0.00000
-11.87688   0.00000
-11.80402   0.00000
-11.73116   0.00000
-11.65829   0.00000
-11.58543   0.00000
-11.51256   0.00000
-11.43970   0.00000
-11.36683   0.00000
-11.29397   0.00000
-11.22111   0.00000
-11.14824   0.00000
-11.07538   0.00000
-11.00251   0.00000
-10.92965   0.00000
-10.85678   0.00000
-10.78392   0.00000
-10.71106   0.00000
-10.63819   0.00000
-10.56533   0.00000
-10.49246   0.00000
-10.41960   0.00000
-10.34673   0.00000
-10.27387   0.00000
-10.20101   0.00000
-10.12814   0.00000
-10.05528   0.00000
 -9.98241   0.00000
 -9.90955   0.00000
 -9.83668   0.00000
 -9.76382   0.00000
 -9.69095   0.00000
 -9.61809   0.00000
 -9.54523   0.00000
 -9.47236   0.00000
 -9.39950   0.00000
 -9.32663   0.00000
 -9.25377   0.00000
 -9.18090   0.00000
 -9.10804   0.00000
 -9.03518   0.00000
 -8.96231   0.00000
 -8.88945   0.00000
 -8.81658   0.00000
 -8.74372   0.00000
 -8.67085   0.00000
 -8.59799   0.00000
 -8.52513   0.00000
 -8.45226   0.00000
 -8.37940   0.00000
 -8.30653   0.00000
 -8.23367   0.00000
 -8.16080   0.00000
 -8.08794   0.00000
 -8.01508   0.00000
 -7.94221   0.00000
 -7.86935   0.00000
 -7.79648   0.00000
 -7.72362   0.00000
 -7.65075   0.00000
 -7.57789   0.00000
 -7.50503   0.00000
 -7.43216   0.00000
 -7.35930   0.00000
 -7.28643   0.00000
 -7.21357   0.00000
 -7.14070   0.00000
 -7.06784   0.00000
 -6.99497   0.00000
 -6.92211   0.00000
 -6.84925   0.00000
 -6.77638   0.00000
 -6.70352   0.00000
 -6.63065   0.00000
 -6.55779   0.00000
 -6.48492   0.00000
 -6.41206   0.00000
 -6.33920   0.00000
 -6.26633   0.00000
 -6.19347   0.00000
 -6.12060   0.00000
 -6.04774   0.00000
 -5.97487   0.00000
 -5.90201   0.00000
 -5.82915   0.00000
 -5.75628   0.00000
 -5.68342   0.00000
 -5.61055   0.00000
 -5.53769   0.00000
 -5.46482   0.00000
 -5.39196   0.00000
 -5.31910   0.00000
 -5.24623   0.00000
 -5.17337   0.00000
 -5.10050   0.00000
 -5.02764   0.00000
 -4.95477   0.00000
 -4.88191   0.00000
 -4.80905   0.00000
 -4.73618   0.00000
 -4.66332   0.00000
 -4.59045   0.00000
 -4.51759   0.00000
 -4.44472   0.00000
 -4.37186   0.00000
 -4.29899   0.00000
 -4.22613   0.00000
 -4.15327   0.00000
 -4.08040   0.00000
 -4.00754   0.00000
 -3.93467   0.00000
 -3.86181   0.00000
 -3.78894   0.00000
 -3.71608   0.00000
 -3.64322   0.00000
 -3.57035   0.00000
 -3.49749   0.00000
 -3.42462   0.00000
 -3.35176   0.00000
 -3.27889   0.00000
 -3.20603   0.00000
 -3.13317   0.00000
 -3.06030   0.00000
 -2.98744   0.00000
 -2.91457   0.00000
 -2.84171   0.00000
 -2.76884   0.00000
 -2.69598   0.00000
 -2.62312   0.00000
 -2.55025   0.00000
 -2.47739   0.00000
 -2.40452   0.00000
 -2.33166   0.00000
 -2.25879   0.00000
 -2.18593   0.00000
 -2.11307   0.00000
 -2.04020   0.00000
 -1.96734   0.00000
 -1.89447   0.01021
 -1.82161   0.06617
 -1.74874   0.11042
 -1.67588   0.14609
 -1.60302   0.20550
 -1.53015   0.33586
 -1.45729   0.43687
 -1.38442   0.21899
 -1.31156   0.10475
 -1.23869   0.06388
 -1.16583   0.03799
 -1.09296   0.04151
 -1.02010   0.04932
 -0.94724   0.05053
 -0.87437   0.03692
 -0.80151   0.03181
 -0.72864   0.02820
 -0.65578   0.04887
 -0.58291   0.05329
 -0.51005   0.02910
 -0.43719   0.02098
 -0.36432   0.00845
 -0.29146   0.00461
 -0.21859   0.00284
 -0.14573   0.00146
 -0.07286   0.00055
  0.00000   0.00003
  0.07286   0.00000
  0.14573   0.00000
  0.21859   0.00000
  0.29146   0.00000
  0.36432   0.00000
  0.43719   0.00000
  0.51005   0.00000
  0.58291   0.00000
  0.65578   0.00000
  0.72864   0.00000
  0.80151   0.00000
  0.87437   0.00000
  0.94724   0.00000
  1.02010   0.00000
  1.09296   0.00000
  1.16583   0.00000
  1.23869   0.00000
  1.31156   0.00000
  1.38442   0.00000
  1.45729   0.00000
  1.53015   0.00000
  1.60302   0.00000
  1.67588   0.00000
  1.74874   0.00000
  1.82161   0.00000
  1.89447   0.00000
  1.96734   0.00000
  2.04020   0.00000
  2.11307   0.00000
  2.18593   0.00000
  2.25879   0.00000
  2.33166   0.00000
  2.40452   0.00000
  2.47739   0.00000
  2.55025   0.00000
      2.55025126     -12.02261307   201      -0.52813317       1.00000000; Z= 17; 3s 3p_y 3p_z 3p_x 
-12.02261   0.00000   0.00000   0.00000   0.00000
-11.94975   0.00000   0.00000   0.00000   0.00000
-11.87688   0.00000   0.00000   0.00000   0.00000
-11.80402   0.00000   0.00000   0.00000   0.00000
-11.73116   0.00000   0.00000   0.00000   0.00000
-11.65829   0.00000   0.00000   0.00000   0.00000
-11.58543   0.00000   0.00000   0.00000   0.00000
-11.51256   0.00000   0.00000   0.00000   0.00000
-11.43970   0.00000   0.00000   0.00000   0.00000
-11.36683   0.00000   0.00000   0.00000   0.00000
-11.29397   0.00000   0.00000   0.00000   0.00000
-11.22111   0.00000   0.00000   0.00000   0.00000
-11.14824   0.00000   0.00000   0.00000   0.00000
-11.07538   0.00000   0.00000   0.00000   0.00000
-11.00251   0.00000   0.00000   0.00000   0.00000
-10.92965   0.00000   0.00000   0.00000   0.00000
-10.85678   0.00000   0.00000   0.00000   0.00000
-10.78392   0.00000   0.00000   0.00000   0.00000
-10.71106   0.00000   0.00000   0.00000   0.00000
-10.63819   0.00000   0.00000   0.00000   0.00000
-10.56533   0.00000   0.00000   0.00000   0.00000
-10.49246   0.00000   0.00000   0.00000   0.00000
-10.41960   0.00000   0.00000   0.00000   0.00000
-10.34673   0.00000   0.00000   0.00000   0.00000
-10.27387   0.00000   0.00000   0.00000   0.00000
-10.20101   0.00000   0.00000   0.00000   0.00000
-10.12814   0.00000   0.00000   0.00000   0.00000
-10.05528   0.00000   0.00000   0.00000   0.00000
 -9.98241   0.00000   0.00000   0.00000   0.00000
 -9.90955   0.00000   0.00000   0.00000   0.00000
 -9.83668   0.00000   0.00000   0.00000   0.00000
 -9.76382   0.00000   0.00000   0.00000   0.00000
 -9.69095   0.00000   0.00000   0.00000   0.00000
 -9.61809   0.00000   0.00000   0.00000   0.00000
 -9.54523   0.00000   0.00000   0.00000   0.00000
 -9.47236   0.00000   0.00000   0.00000   0.00000
 -9.39950   0.00000   0.00000   0.00000   0.00000
 -9.32663   0.00000   0.00000   0.00000   0.00000
 -9.25377   0.00000   0.00000   0.00000   0.00000
 -9.18090   0.00000   0.00000   0.00000   0.00000
 -9.10804   0.00000   0.00000   0.00000   0.00000
 -9.03518   0.00000   0.00000   0.00000   0.00000
 -8.96231   0.00000   0.00000   0.00000   0.00000
 -8.88945   0.00000   0.00000   0.00000   0.00000
 -8.81658   0.00000   0.00000   0.00000   0.00000
 -8.74372   0.00000   0.00000   0.00000   0.00000
 -8.67085   0.00000   0.00000   0.00000   0.00000
 -8.59799   0.00000   0.00000   0.00000   0.00000
 -8.52513   0.00000   0.00000   0.00000   0.00000
 -8.45226   0.00000   0.00000   0.00000   0.00000
 -8.37940   0.00000   0.00000   0.00000   0.00000
 -8.30653   0.00000   0.00000   0.00000   0.00000
 -8.23367   0.00000   0.00000   0.00000   0.00000
 -8.16080   0.00000   0.00000   0.00000   0.00000
 -8.08794   0.00000   0.00000   0.00000   0.00000
 -8.01508   0.00000   0.00000   0.00000   0.00000
 -7.94221   0.00000   0.00000   0.00000   0.00000
 -7.86935   0.00000   0.00000   0.00000   0.00000
 -7.79648   0.00000   0.00000   0.00000   0.00000
 -7.72362   0.00000   0.00000   0.00000   0.00000
 -7.65075   0.00000   0.00000   0.00000   0.00000
 -7.57789   0.00000   0.00000   0.00000   0.00000
 -7.50503   0.00000   0.00000   0.00000   0.00000
 -7.43216   0.00000   0.00000   0.00000   0.00000
 -7.35930   0.00000   0.00000   0.00000   0.00000
 -7.28643   0.00000   0.00000   0.00000   0.00000
 -7.21357   0.00000   0.00000   0.00000   0.00000
 -7.14070   0.00000   0.00000   0.00000   0.00000
 -7.06784   0.00000   0.00000   0.00000   0.00000
 -6.99497   0.00000   0.00000   0.00000   0.00000
 -6.92211   0.00000   0.00000   0.00000   0.00000
 -6.84925   0.00000   0.00000   0.00000   0.00000
 -6.77638   0.00000   0.00000   0.00000   0.00000
 -6.70352   0.00000   0.00000   0.00000   0.00000
 -6.63065   0.00000   0.00000   0.00000   0.00000
 -6.55779   0.00000   0.00000   0.00000   0.00000
 -6.48492   0.00000   0.00000   0.00000   0.00000
 -6.41206   0.00000   0.00000   0.00000   0.00000
 -6.33920   0.00000   0.00000   0.00000   0.00000
 -6.26633   0.00000   0.00000   0.00000   0.00000
 -6.19347   0.00000   0.00000   0.00000   0.00000
 -6.12060   0.00000   0.00000   0.00000   0.00000
 -6.04774   0.00000   0.00000   0.00000   0.00000
 -5.97487   0.00000   0.00000   0.00000   0.00000
 -5.90201   0.00000   0.00000   0.00000   0.00000
 -5.82915   0.00000   0.00000   0.00000   0.00000
 -5.75628   0.00000   0.00000   0.00000   0.00000
 -5.68342   0.00000   0.00000   0.00000   0.00000
 -5.61055   0.00000   0.00000   0.00000   0.00000
 -5.53769   0.00000   0.00000   0.00000   0.00000
 -5.46482   0.00000   0.00000   0.00000   0.00000
 -5.39196   0.00000   0.00000   0.00000   0.00000
 -5.31910   0.00000   0.00000   0.00000   0.00000
 -5.24623   0.00000   0.00000   0.00000   0.00000
 -5.17337   0.00000   0.00000   0.00000   0.00000
 -5.10050   0.00000   0.00000   0.00000   0.00000
 -5.02764   0.00000   0.00000   0.00000   0.00000
 -4.95477   0.00000   0.00000   0.00000   0.00000
 -4.88191   0.00000   0.00000   0.00000   0.00000
 -4.80905   0.00000   0.00000   0.00000   0.00000
 -4.73618   0.00000   0.00000   0.00000   0.00000
 -4.66332   0.00000   0.00000   0.00000   0.00000
 -4.59045   0.00000   0.00000   0.00000   0.00000
 -4.51759   0.00000   0.00000   0.00000   0.00000
 -4.44472   0.00000   0.00000   0.00000   0.00000
 -4.37186   0.00000   0.00000   0.00000   0.00000
 -4.29899   0.00000   0.00000   0.00000   0.00000
 -4.22613   0.00000   0.00000   0.00000   0.00000
 -4.15327   0.00000   0.00000   0.00000   0.00000
 -4.08040   0.00000   0.00000   0.00000   0.00000
 -4.00754   0.00000   0.00000   0.00000   0.00000
 -3.93467   0.00000   0.00000   0.00000   0.00000
 -3.86181   0.00000   0.00000   0.00000   0.00000
 -3.78894   0.00000   0.00000   0.00000   0.00000
 -3.71608   0.00000   0.00000   0.00000   0.00000
 -3.64322   0.00000   0.00000   0.00000   0.00000
 -3.57035   0.00000   0.00000   0.00000   0.00000
 -3.49749   0.00000   0.00000   0.00000   0.00000
 -3.42462   0.00000   0.00000   0.00000   0.00000
 -3.35176   0.00000   0.00000   0.00000   0.00000
 -3.27889   0.00000   0.00000   0.00000   0.00000
 -3.20603   0.00000   0.00000   0.00000   0.00000
 -3.13317   0.00000   0.00000   0.00000   0.00000
 -3.06030   0.00000   0.00000   0.00000   0.00000
 -2.98744   0.00000   0.00000   0.00000   0.00000
 -2.91457   0.00000   0.00000   0.00000   0.00000
 -2.84171   0.00000   0.00000   0.00000   0.00000
 -2.76884   0.00000   0.00000   0.00000   0.00000
 -2.69598   0.00000   0.00000   0.00000   0.00000
 -2.62312   0.00000   0.00000   0.00000   0.00000
 -2.55025   0.00000   0.00000   0.00000   0.00000
 -2.47739   0.00000   0.00000   0.00000   0.00000
 -2.40452   0.00000   0.00000   0.00000   0.00000
 -2.33166   0.00000   0.00000   0.00000   0.00000
 -2.25879   0.00000   0.00000   0.00000   0.00000
 -2.18593   0.00000   0.00000   0.00000   0.00000
 -2.11307   0.00000   0.00000   0.00000   0.00000
 -2.04020   0.00000   0.00000   0.00000   0.00000
 -1.96734   0.00000   0.00000   0.00000   0.00000
 -1.89447   0.00001   0.02428   0.02385   0.02598
 -1.82161   0.00027   0.18390   0.18238   0.18770
 -1.74874   0.00075   0.32537   0.32615   0.32141