Automatically generated mesh
     256
Reciprocal lattice
    0.06250000000000    0.06250000000000    0.06250000000000             2
    0.18750000000000    0.06250000000000    0.06250000000000             2
    0.31250000000000    0.06250000000000    0.06250000000000             2
    0.43750000000000    0.06250000000000    0.06250000000000             2
   -0.43750000000000    0.06250000000000    0.06250000000000             2
   -0.31250000000000    0.06250000000000    0.06250000000000             2
   -0.18750000000000    0.06250000000000    0.06250000000000             2
   -0.06250000000000    0.06250000000000    0.06250000000000             2
    0.06250000000000    0.18750000000000    0.06250000000000             2
    0.18750000000000    0.18750000000000    0.06250000000000             2
    0.31250000000000    0.18750000000000    0.06250000000000             2
    0.43750000000000    0.18750000000000    0.06250000000000             2
   -0.43750000000000    0.18750000000000    0.06250000000000             2
   -0.31250000000000    0.18750000000000    0.06250000000000             2
   -0.18750000000000    0.18750000000000    0.06250000000000             2
   -0.06250000000000    0.18750000000000    0.06250000000000             2
    0.06250000000000    0.31250000000000    0.06250000000000             2
    0.18750000000000    0.31250000000000    0.06250000000000             2
    0.31250000000000    0.31250000000000    0.06250000000000             2
    0.43750000000000    0.31250000000000    0.06250000000000             2
   -0.43750000000000    0.31250000000000    0.06250000000000             2
   -0.31250000000000    0.31250000000000    0.06250000000000             2
   -0.18750000000000    0.31250000000000    0.06250000000000             2
   -0.06250000000000    0.31250000000000    0.06250000000000             2
    0.06250000000000    0.43750000000000    0.06250000000000             2
    0.18750000000000    0.43750000000000    0.06250000000000             2
    0.31250000000000    0.43750000000000    0.06250000000000             2
    0.43750000000000    0.43750000000000    0.06250000000000             2
   -0.43750000000000    0.43750000000000    0.06250000000000             2
   -0.31250000000000    0.43750000000000    0.06250000000000             2
   -0.18750000000000    0.43750000000000    0.06250000000000             2
   -0.06250000000000    0.43750000000000    0.06250000000000             2
    0.06250000000000   -0.43750000000000    0.06250000000000             2
    0.18750000000000   -0.43750000000000    0.06250000000000             2
    0.31250000000000   -0.43750000000000    0.06250000000000             2
    0.43750000000000   -0.43750000000000    0.06250000000000             2
   -0.43750000000000   -0.43750000000000    0.06250000000000             2
   -0.31250000000000   -0.43750000000000    0.06250000000000             2
   -0.18750000000000   -0.43750000000000    0.06250000000000             2
   -0.06250000000000   -0.43750000000000    0.06250000000000             2
    0.06250000000000   -0.31250000000000    0.06250000000000             2
    0.18750000000000   -0.31250000000000    0.06250000000000             2
    0.31250000000000   -0.31250000000000    0.06250000000000             2
    0.43750000000000   -0.31250000000000    0.06250000000000             2
   -0.43750000000000   -0.31250000000000    0.06250000000000             2
   -0.31250000000000   -0.31250000000000    0.06250000000000             2
   -0.18750000000000   -0.31250000000000    0.06250000000000             2
   -0.06250000000000   -0.31250000000000    0.06250000000000             2
    0.06250000000000   -0.18750000000000    0.06250000000000             2
    0.18750000000000   -0.18750000000000    0.06250000000000             2
    0.31250000000000   -0.18750000000000    0.06250000000000             2
    0.43750000000000   -0.18750000000000    0.06250000000000             2
   -0.43750000000000   -0.18750000000000    0.06250000000000             2
   -0.31250000000000   -0.18750000000000    0.06250000000000             2
   -0.18750000000000   -0.18750000000000    0.06250000000000             2
   -0.06250000000000   -0.18750000000000    0.06250000000000             2
    0.06250000000000   -0.06250000000000    0.06250000000000             2
    0.18750000000000   -0.06250000000000    0.06250000000000             2
    0.31250000000000   -0.06250000000000    0.06250000000000             2
    0.43750000000000   -0.06250000000000    0.06250000000000             2
   -0.43750000000000   -0.06250000000000    0.06250000000000             2
   -0.31250000000000   -0.06250000000000    0.06250000000000             2
   -0.18750000000000   -0.06250000000000    0.06250000000000             2
   -0.06250000000000   -0.06250000000000    0.06250000000000             2
    0.06250000000000    0.06250000000000    0.18750000000000             2
    0.18750000000000    0.06250000000000    0.18750000000000             2
    0.31250000000000    0.06250000000000    0.18750000000000             2
    0.43750000000000    0.06250000000000    0.18750000000000             2
   -0.43750000000000    0.06250000000000    0.18750000000000             2
   -0.31250000000000    0.06250000000000    0.18750000000000             2
   -0.18750000000000    0.06250000000000    0.18750000000000             2
   -0.06250000000000    0.06250000000000    0.18750000000000             2
    0.06250000000000    0.18750000000000    0.18750000000000             2
    0.18750000000000    0.18750000000000    0.18750000000000             2
    0.31250000000000    0.18750000000000    0.18750000000000             2
    0.43750000000000    0.18750000000000    0.18750000000000             2
   -0.43750000000000    0.18750000000000    0.18750000000000             2
   -0.31250000000000    0.18750000000000    0.18750000000000             2
   -0.18750000000000    0.18750000000000    0.18750000000000             2
   -0.06250000000000    0.18750000000000    0.18750000000000             2
    0.06250000000000    0.31250000000000    0.18750000000000             2
    0.18750000000000    0.31250000000000    0.18750000000000             2
    0.31250000000000    0.31250000000000    0.18750000000000             2
    0.43750000000000    0.31250000000000    0.18750000000000             2
   -0.43750000000000    0.31250000000000    0.18750000000000             2
   -0.31250000000000    0.31250000000000    0.18750000000000             2
   -0.18750000000000    0.31250000000000    0.18750000000000             2
   -0.06250000000000    0.31250000000000    0.18750000000000             2
    0.06250000000000    0.43750000000000    0.18750000000000             2
    0.18750000000000    0.43750000000000    0.18750000000000             2
    0.31250000000000    0.43750000000000    0.18750000000000             2
    0.43750000000000    0.43750000000000    0.18750000000000             2
   -0.43750000000000    0.43750000000000    0.18750000000000             2
   -0.31250000000000    0.43750000000000    0.18750000000000             2
   -0.18750000000000    0.43750000000000    0.18750000000000             2
   -0.06250000000000    0.43750000000000    0.18750000000000             2
    0.06250000000000   -0.43750000000000    0.18750000000000             2
    0.18750000000000   -0.43750000000000    0.18750000000000             2
    0.31250000000000   -0.43750000000000    0.18750000000000             2
    0.43750000000000   -0.43750000000000    0.18750000000000             2
   -0.43750000000000   -0.43750000000000    0.18750000000000             2
   -0.31250000000000   -0.43750000000000    0.18750000000000             2
   -0.18750000000000   -0.43750000000000    0.18750000000000             2
   -0.06250000000000   -0.43750000000000    0.18750000000000             2
    0.06250000000000   -0.31250000000000    0.18750000000000             2
    0.18750000000000   -0.31250000000000    0.18750000000000             2
    0.31250000000000   -0.31250000000000    0.18750000000000             2
    0.43750000000000   -0.31250000000000    0.18750000000000             2
   -0.43750000000000   -0.31250000000000    0.18750000000000             2
   -0.31250000000000   -0.31250000000000    0.18750000000000             2
   -0.18750000000000   -0.31250000000000    0.18750000000000             2
   -0.06250000000000   -0.31250000000000    0.18750000000000             2
    0.06250000000000   -0.18750000000000    0.18750000000000             2
    0.18750000000000   -0.18750000000000    0.18750000000000             2
    0.31250000000000   -0.18750000000000    0.18750000000000             2
    0.43750000000000   -0.18750000000000    0.18750000000000             2
   -0.43750000000000   -0.18750000000000    0.18750000000000             2
   -0.31250000000000   -0.18750000000000    0.18750000000000             2
   -0.18750000000000   -0.18750000000000    0.18750000000000             2
   -0.06250000000000   -0.18750000000000    0.18750000000000             2
    0.06250000000000   -0.06250000000000    0.18750000000000             2
    0.18750000000000   -0.06250000000000    0.18750000000000             2
    0.31250000000000   -0.06250000000000    0.18750000000000             2
    0.43750000000000   -0.06250000000000    0.18750000000000             2
   -0.43750000000000   -0.06250000000000    0.18750000000000             2
   -0.31250000000000   -0.06250000000000    0.18750000000000             2
   -0.18750000000000   -0.06250000000000    0.18750000000000             2
   -0.06250000000000   -0.06250000000000    0.18750000000000             2
    0.06250000000000    0.06250000000000    0.31250000000000             2
    0.18750000000000    0.06250000000000    0.31250000000000             2
    0.31250000000000    0.06250000000000    0.31250000000000             2
    0.43750000000000    0.06250000000000    0.31250000000000             2
   -0.43750000000000    0.06250000000000    0.31250000000000             2
   -0.31250000000000    0.06250000000000    0.31250000000000             2
   -0.18750000000000    0.06250000000000    0.31250000000000             2
   -0.06250000000000    0.06250000000000    0.31250000000000             2
    0.06250000000000    0.18750000000000    0.31250000000000             2
    0.18750000000000    0.18750000000000    0.31250000000000             2
    0.31250000000000    0.18750000000000    0.31250000000000             2
    0.43750000000000    0.18750000000000    0.31250000000000             2
   -0.43750000000000    0.18750000000000    0.31250000000000             2
   -0.31250000000000    0.18750000000000    0.31250000000000             2
   -0.18750000000000    0.18750000000000    0.31250000000000             2
   -0.06250000000000    0.18750000000000    0.31250000000000             2
    0.06250000000000    0.31250000000000    0.31250000000000             2
    0.18750000000000    0.31250000000000    0.31250000000000             2
    0.31250000000000    0.31250000000000    0.31250000000000             2
    0.43750000000000    0.31250000000000    0.31250000000000             2
   -0.43750000000000    0.31250000000000    0.31250000000000             2
   -0.31250000000000    0.31250000000000    0.31250000000000             2
   -0.18750000000000    0.31250000000000    0.31250000000000             2
   -0.06250000000000    0.31250000000000    0.31250000000000             2
    0.06250000000000    0.43750000000000    0.31250000000000             2
    0.18750000000000    0.43750000000000    0.31250000000000             2
    0.31250000000000    0.43750000000000    0.31250000000000             2
    0.43750000000000    0.43750000000000    0.31250000000000             2
   -0.43750000000000    0.43750000000000    0.31250000000000             2
   -0.31250000000000    0.43750000000000    0.31250000000000             2
   -0.18750000000000    0.43750000000000    0.31250000000000             2
   -0.06250000000000    0.43750000000000    0.31250000000000             2
    0.06250000000000   -0.43750000000000    0.31250000000000             2
    0.18750000000000   -0.43750000000000    0.31250000000000             2
    0.31250000000000   -0.43750000000000    0.31250000000000             2
    0.43750000000000   -0.43750000000000    0.31250000000000             2
   -0.43750000000000   -0.43750000000000    0.31250000000000             2
   -0.31250000000000   -0.43750000000000    0.31250000000000             2
   -0.18750000000000   -0.43750000000000    0.31250000000000             2
   -0.06250000000000   -0.43750000000000    0.31250000000000             2
    0.06250000000000   -0.31250000000000    0.31250000000000             2
    0.18750000000000   -0.31250000000000    0.31250000000000             2
    0.31250000000000   -0.31250000000000    0.31250000000000             2
    0.43750000000000   -0.31250000000000    0.31250000000000             2
   -0.43750000000000   -0.31250000000000    0.31250000000000             2
   -0.31250000000000   -0.31250000000000    0.31250000000000             2
   -0.18750000000000   -0.31250000000000    0.31250000000000             2
   -0.06250000000000   -0.31250000000000    0.31250000000000             2
    0.06250000000000   -0.18750000000000    0.31250000000000             2
    0.18750000000000   -0.18750000000000    0.31250000000000             2
    0.31250000000000   -0.18750000000000    0.31250000000000             2
    0.43750000000000   -0.18750000000000    0.31250000000000             2
   -0.43750000000000   -0.18750000000000    0.31250000000000             2
   -0.31250000000000   -0.18750000000000    0.31250000000000             2
   -0.18750000000000   -0.18750000000000    0.31250000000000             2
   -0.06250000000000   -0.18750000000000    0.31250000000000             2
    0.06250000000000   -0.06250000000000    0.31250000000000             2
    0.18750000000000   -0.06250000000000    0.31250000000000             2
    0.31250000000000   -0.06250000000000    0.31250000000000             2
    0.43750000000000   -0.06250000000000    0.31250000000000             2
   -0.43750000000000   -0.06250000000000    0.31250000000000             2
   -0.31250000000000   -0.06250000000000    0.31250000000000             2
   -0.18750000000000   -0.06250000000000    0.31250000000000             2
   -0.06250000000000   -0.06250000000000    0.31250000000000             2
    0.06250000000000    0.06250000000000    0.43750000000000             2
    0.18750000000000    0.06250000000000    0.43750000000000             2
    0.31250000000000    0.06250000000000    0.43750000000000             2
    0.43750000000000    0.06250000000000    0.43750000000000             2
   -0.43750000000000    0.06250000000000    0.43750000000000             2
   -0.31250000000000    0.06250000000000    0.43750000000000             2
   -0.18750000000000    0.06250000000000    0.43750000000000             2
   -0.06250000000000    0.06250000000000    0.43750000000000             2
    0.06250000000000    0.18750000000000    0.43750000000000             2
    0.18750000000000    0.18750000000000    0.43750000000000             2
    0.31250000000000    0.18750000000000    0.43750000000000             2
    0.43750000000000    0.18750000000000    0.43750000000000             2
   -0.43750000000000    0.18750000000000    0.43750000000000             2
   -0.31250000000000    0.18750000000000    0.43750000000000             2
   -0.18750000000000    0.18750000000000    0.43750000000000             2
   -0.06250000000000    0.18750000000000    0.43750000000000             2
    0.06250000000000    0.31250000000000    0.43750000000000             2
    0.18750000000000    0.31250000000000    0.43750000000000             2
    0.31250000000000    0.31250000000000    0.43750000000000             2
    0.43750000000000    0.31250000000000    0.43750000000000             2
   -0.43750000000000    0.31250000000000    0.43750000000000             2
   -0.31250000000000    0.31250000000000    0.43750000000000             2
   -0.18750000000000    0.31250000000000    0.43750000000000             2
   -0.06250000000000    0.31250000000000    0.43750000000000             2
    0.06250000000000    0.43750000000000    0.43750000000000             2
    0.18750000000000    0.43750000000000    0.43750000000000             2
    0.31250000000000    0.43750000000000    0.43750000000000             2
    0.43750000000000    0.43750000000000    0.43750000000000             2
   -0.43750000000000    0.43750000000000    0.43750000000000             2
   -0.31250000000000    0.43750000000000    0.43750000000000             2
   -0.18750000000000    0.43750000000000    0.43750000000000             2
   -0.06250000000000    0.43750000000000    0.43750000000000             2
    0.06250000000000   -0.43750000000000    0.43750000000000             2
    0.18750000000000   -0.43750000000000    0.43750000000000             2
    0.31250000000000   -0.43750000000000    0.43750000000000             2
    0.43750000000000   -0.43750000000000    0.43750000000000             2
   -0.43750000000000   -0.43750000000000    0.43750000000000             2
   -0.31250000000000   -0.43750000000000    0.43750000000000             2
   -0.18750000000000   -0.43750000000000    0.43750000000000             2
   -0.06250000000000   -0.43750000000000    0.43750000000000             2
    0.06250000000000   -0.31250000000000    0.43750000000000             2
    0.18750000000000   -0.31250000000000    0.43750000000000             2
    0.31250000000000   -0.31250000000000    0.43750000000000             2
    0.43750000000000   -0.31250000000000    0.43750000000000             2
   -0.43750000000000   -0.31250000000000    0.43750000000000             2
   -0.31250000000000   -0.31250000000000    0.43750000000000             2
   -0.18750000000000   -0.31250000000000    0.43750000000000             2
   -0.06250000000000   -0.31250000000000    0.43750000000000             2
    0.06250000000000   -0.18750000000000    0.43750000000000             2
    0.18750000000000   -0.18750000000000    0.43750000000000             2
    0.31250000000000   -0.18750000000000    0.43750000000000             2
    0.43750000000000   -0.18750000000000    0.43750000000000             2
   -0.43750000000000   -0.18750000000000    0.43750000000000             2
   -0.31250000000000   -0.18750000000000    0.43750000000000             2
   -0.18750000000000   -0.18750000000000    0.43750000000000             2
   -0.06250000000000   -0.18750000000000    0.43750000000000             2
    0.06250000000000   -0.06250000000000    0.43750000000000             2
    0.18750000000000   -0.06250000000000    0.43750000000000             2
    0.31250000000000   -0.06250000000000    0.43750000000000             2
    0.43750000000000   -0.06250000000000    0.43750000000000             2
   -0.43750000000000   -0.06250000000000    0.43750000000000             2
   -0.31250000000000   -0.06250000000000    0.43750000000000             2
   -0.18750000000000   -0.06250000000000    0.43750000000000             2
   -0.06250000000000   -0.06250000000000    0.43750000000000             2
Tetrahedra
      1536    0.00032552083333
         2         1         2        10        65
         2         1         9        10        65
         2         9        10        65        73
         2         2        10        65        66
         2        10        65        66        74
         2        10        65        73        74
         2         2         3        11        66
         2         2        10        11        66
         2        10        11        66        74
         2         3        11        66        67
         2        11        66        67        75
         2        11        66        74        75
         2         3         4        12        67
         2         3        11        12        67
         2        11        12        67        75
         2         4        12        67        68
         2        12        67        68        76
         2        12        67        75        76
         2         4         5        13        68
         2         4        12        13        68
         2        12        13        68        76
         2         5        13        68        69
         2        13        68        69        77
         2        13        68        76        77
         2         5         6        14        69
         2         5        13        14        69
         2        13        14        69        77
         2         6        14        69        70
         2        14        69        70        78
         2        14        69        77        78
         2         6         7        15        70
         2         6        14        15        70
         2        14        15        70        78
         2         7        15        70        71
         2        15        70        71        79
         2        15        70        78        79
         2         7         8        16        71
         2         7        15        16        71
         2        15        16        71        79
         2         8        16        71        72
         2        16        71        72        80
         2        16        71        79        80
         2         1         8         9        72
         2         8         9        16        72
         2         9        16        72        80
         2         1         9        65        72
         2         9        65        72        73
         2         9        72        73        80
         2         9        10        18        73
         2         9        17        18        73
         2        17        18        73        81
         2        10        18        73        74
         2        18        73        74        82
         2        18        73        81        82
         2        10        11        19        74
         2        10        18        19        74
         2        18        19        74        82
         2        11        19        74        75
         2        19        74        75        83
         2        19        74        82        83
         2        11        12        20        75
         2        11        19        20        75
         2        19        20        75        83
         2        12        20        75        76
         2        20        75        76        84
         2        20        75        83        84
         2        12        13        21        76
         2        12        20        21        76
         2        20        21        76        84
         2        13        21        76        77
         2        21        76        77        85
         2        21        76        84        85
         2        13        14        22        77
         2        13        21        22        77
         2        21        22        77        85
         2        14        22        77        78
         2        22        77        78        86
         2        22        77        85        86
         2        14        15        23        78
         2        14        22        23        78
         2        22        23        78        86
         2        15        23        78        79
         2        23        78        79        87
         2        23        78        86        87
         2        15        16        24        79
         2        15        23        24        79
         2        23        24        79        87
         2        16        24        79        80
         2        24        79        80        88
         2        24        79        87        88
         2         9        16        17        80
         2        16        17        24        80
         2        17        24        80        88
         2         9        17        73        80
         2        17        73        80        81
         2        17        80        81        88
         2        17        18        26        81
         2        17        25        26        81
         2        25        26        81        89
         2        18        26        81        82
         2        26        81        82        90
         2        26        81        89        90
         2        18        19        27        82
         2        18        26        27        82
         2        26        27        82        90
         2        19        27        82        83
         2        27        82        83        91
         2        27        82        90        91
         2        19        20        28        83
         2        19        27        28        83
         2        27        28        83        91
         2        20        28        83        84
         2        28        83        84        92
         2        28        83        91        92
         2        20        21        29        84
         2        20        28        29        84
         2        28        29        84        92
         2        21        29        84        85
         2        29        84        85        93
         2        29        84        92        93
         2        21        22        30        85
         2        21        29        30        85
         2        29        30        85        93
         2        22        30        85        86
         2        30        85        86        94
         2        30        85        93        94
         2        22        23        31        86
         2        22        30        31        86
         2        30        31        86        94
         2        23        31        86        87
         2        31        86        87        95
         2        31        86        94        95
         2        23        24        32        87
         2        23        31        32        87
         2        31        32        87        95
         2        24        32        87        88
         2        32        87        88        96
         2        32        87        95        96
         2        17        24        25        88
         2        24        25        32        88
         2        25        32        88        96
         2        17        25        81        88
         2        25        81        88        89
         2        25        88        89        96
         2        25        26        34        89
         2        25        33        34        89
         2        33        34        89        97
         2        26        34        89        90
         2        34        89        90        98
         2        34        89        97        98
         2        26        27        35        90
         2        26        34        35        90
         2        34        35        90        98
         2        27        35        90        91
         2        35        90        91        99
         2        35        90        98        99
         2        27        28        36        91
         2        27        35        36        91
         2        35        36        91        99
         2        28        36        91        92
         2        36        91        92       100
         2        36        91        99       100
         2        28        29        37        92
         2        28        36        37        92
         2        36        37        92       100
         2        29        37        92        93
         2        37        92        93       101
         2        37        92       100       101
         2        29        30        38        93
         2        29        37        38        93
         2        37        38        93       101
         2        30        38        93        94
         2        38        93        94       102
         2        38        93       101       102
         2        30        31        39        94
         2        30        38        39        94
         2        38        39        94       102
         2        31        39        94        95
         2        39        94        95       103
         2        39        94       102       103
         2        31        32        40        95
         2        31        39        40        95
         2        39        40        95       103
         2        32        40        95        96
         2        40        95        96       104
         2        40        95       103       104
         2        25        32        33        96
         2        32        33        40        96
         2        33        40        96       104
         2        25        33        89        96
         2        33        89        96        97
         2        33        96        97       104
         2        33        34        42        97
         2        33        41        42        97
         2        41        42        97       105
         2        34        42        97        98
         2        42        97        98       106
         2        42        97       105       106
         2        34        35        43        98
         2        34        42        43        98
         2        42        43        98       106
         2        35        43        98        99
         2        43        98        99       107
         2        43        98       106       107
         2        35        36        44        99
         2        35        43        44        99
         2        43        44        99       107
         2        36        44        99       100
         2        44        99       100       108