  COHP#  atomMU  atomNU     distance     translation      ICOHP (at) eF   for spin  1
      1     Na1     Na2      3.99586      -1   0   0           -0.02652 
      2     Na1     Na2      3.99586       0   0   0           -0.02652 
      3     Na1     Na2      3.99586      -1   1   0           -0.02652 
      4     Na1     Na2      3.99586       0   1   0           -0.02652 
      5     Na1     Na3      3.99586       0   0  -1           -0.03782 
      6     Na1     Na3      3.99586       0   1  -1           -0.03782 
      7     Na1     Na3      3.99586       0   0   0           -0.03782 
      8     Na1     Na3      3.99586       0   1   0           -0.03782 
      9     Na1     Na4      3.99586      -1   0  -1           -0.03782 
     10     Na1     Na4      3.99586       0   0  -1           -0.03782 
     11     Na1     Na4      3.99586      -1   0   0           -0.03782 
     12     Na1     Na4      3.99586       0   0   0           -0.03782 
     13     Na1     Cl5      2.82550       0   0   0           -0.57799 
     14     Na1     Cl5      2.82550       0   1   0           -0.57803 
     15     Na1     Cl6      2.82550      -1   0   0           -0.57801 
     16     Na1     Cl6      2.82550       0   0   0           -0.57799 
     17     Na1     Cl7      2.82550       0   0  -1           -0.81772 
     18     Na1     Cl7      2.82550       0   0   0           -0.81776 
     19     Na2     Na3      3.99586       0   0  -1           -0.03782 
     20     Na2     Na3      3.99586       1   0  -1           -0.03782 
     21     Na2     Na3      3.99586       0   0   0           -0.03782 
     22     Na2     Na3      3.99586       1   0   0           -0.03782 
     23     Na2     Na4      3.99586       0  -1  -1           -0.03783 
     24     Na2     Na4      3.99586       0   0  -1           -0.03783 
     25     Na2     Na4      3.99586       0  -1   0           -0.03783 
     26     Na2     Na4      3.99586       0   0   0           -0.03783 
     27     Na2     Cl5      2.82550       0   0   0           -0.57800 
     28     Na2     Cl5      2.82550       1   0   0           -0.57802 
     29     Na2     Cl6      2.82550       0  -1   0           -0.57802 
     30     Na2     Cl6      2.82550       0   0   0           -0.57799 
     31     Na2     Cl8      2.82550       0   0  -1           -0.81775 
     32     Na2     Cl8      2.82550       0   0   0           -0.81776 
     33     Na3     Na4      3.99586      -1  -1   0           -0.02652 
     34     Na3     Na4      3.99586       0  -1   0           -0.02652 
     35     Na3     Na4      3.99586      -1   0   0           -0.02652 
     36     Na3     Na4      3.99586       0   0   0           -0.02652 
     37     Na3     Cl5      2.82550       0   0   0           -0.81778 
     38     Na3     Cl5      2.82550       0   0   1           -0.81780 
     39     Na3     Cl7      2.82550       0  -1   0           -0.57800 
     40     Na3     Cl7      2.82550       0   0   0           -0.57801 
     41     Na3     Cl8      2.82550      -1   0   0           -0.57801 
     42     Na3     Cl8      2.82550       0   0   0           -0.57799 
     43     Na4     Cl6      2.82550       0   0   0           -0.81777 
     44     Na4     Cl6      2.82550       0   0   1           -0.81778 
     45     Na4     Cl7      2.82550       0   0   0           -0.57802 
     46     Na4     Cl7      2.82550       1   0   0           -0.57799 
     47     Na4     Cl8      2.82550       0   0   0           -0.57800 
     48     Na4     Cl8      2.82550       0   1   0           -0.57800 
     49     Cl5     Cl6      3.99586      -1  -1   0           -0.02925 
     50     Cl5     Cl6      3.99586       0  -1   0           -0.02925 
     51     Cl5     Cl6      3.99586      -1   0   0           -0.02925 
     52     Cl5     Cl6      3.99586       0   0   0           -0.02925 
     53     Cl5     Cl7      3.99586       0  -1  -1           -0.04137 
     54     Cl5     Cl7      3.99586       0   0  -1           -0.04137 
     55     Cl5     Cl7      3.99586       0  -1   0           -0.04137 
     56     Cl5     Cl7      3.99586       0   0   0           -0.04137 
     57     Cl5     Cl8      3.99586      -1   0  -1           -0.04137 
     58     Cl5     Cl8      3.99586       0   0  -1           -0.04137 
     59     Cl5     Cl8      3.99586      -1   0   0           -0.04137 
     60     Cl5     Cl8      3.99586       0   0   0           -0.04137 
     61     Cl6     Cl7      3.99586       0   0  -1           -0.04137 
     62     Cl6     Cl7      3.99586       1   0  -1           -0.04137 
     63     Cl6     Cl7      3.99586       0   0   0           -0.04137 
     64     Cl6     Cl7      3.99586       1   0   0           -0.04137 
     65     Cl6     Cl8      3.99586       0   0  -1           -0.04137 
     66     Cl6     Cl8      3.99586       0   1  -1           -0.04137 
     67     Cl6     Cl8      3.99586       0   0   0           -0.04137 
     68     Cl6     Cl8      3.99586       0   1   0           -0.04137 
     69     Cl7     Cl8      3.99586      -1   0   0           -0.02925 
     70     Cl7     Cl8      3.99586       0   0   0           -0.02925 
     71     Cl7     Cl8      3.99586      -1   1   0           -0.02925 
     72     Cl7     Cl8      3.99586       0   1   0           -0.02925 
