 vasp.5.4.4.18Apr17-6-g9f103f2a35 (build Mar 26 2019 17:47:52) complex          
  
 executed on                LINUX date 2021.04.29  16:15:07
 running on   24 total cores
 distrk:  each k-point on   24 cores,    1 groups
 distr:  one band on NCORES_PER_BAND=   1 cores,   24 groups


--------------------------------------------------------------------------------------------------------


 INCAR:
 POTCAR:    PAW_PBE Na 08Apr2002                  
 POTCAR:    PAW_PBE Cl 06Sep2000                  

 ----------------------------------------------------------------------------- 
|                                                                             |
|           W    W    AA    RRRRR   N    N  II  N    N   GGGG   !!!           |
|           W    W   A  A   R    R  NN   N  II  NN   N  G    G  !!!           |
|           W    W  A    A  R    R  N N  N  II  N N  N  G       !!!           |
|           W WW W  AAAAAA  RRRRR   N  N N  II  N  N N  G  GGG   !            |
|           WW  WW  A    A  R   R   N   NN  II  N   NN  G    G                |
|           W    W  A    A  R    R  N    N  II  N    N   GGGG   !!!           |
|                                                                             |
|      For optimal performance we recommend to set                            |
|        NCORE= 4 - approx SQRT( number of cores)                             |
|      NCORE specifies how many cores store one orbital (NPAR=cpu/NCORE).     |
|      This setting can  greatly improve the performance of VASP for DFT.     |
|      The default,   NCORE=1            might be grossly inefficient         |
|      on modern multi-core architectures or massively parallel machines.     |
|      Do your own testing !!!!                                               |
|      Unfortunately you need to use the default for GW and RPA calculations. |
|      (for HF NCORE is supported but not extensively tested yet)             |
|                                                                             |
 ----------------------------------------------------------------------------- 

 POTCAR:    PAW_PBE Na 08Apr2002                  
  local pseudopotential read in
  partial core-charges read in
  partial kinetic energy density read in
  atomic valenz-charges read in
  non local Contribution for L=           0  read in
    real space projection operators read in
  non local Contribution for L=           0  read in
    real space projection operators read in
  non local Contribution for L=           1  read in
    real space projection operators read in
    PAW grid and wavefunctions read in
 
   number of l-projection  operators is LMAX  =           3
   number of lm-projection operators is LMMAX =           5
 
 POTCAR:    PAW_PBE Cl 06Sep2000                  
  local pseudopotential read in
  partial core-charges read in
  partial kinetic energy density read in
  atomic valenz-charges read in
  non local Contribution for L=           0  read in
    real space projection operators read in
  non local Contribution for L=           0  read in
    real space projection operators read in
  non local Contribution for L=           1  read in
    real space projection operators read in
  non local Contribution for L=           1  read in
    real space projection operators read in
    PAW grid and wavefunctions read in
 
   number of l-projection  operators is LMAX  =           4
   number of lm-projection operators is LMMAX =           8
 
  PAW_PBE Na 08Apr2002                  :
 energy of atom  1       EATOM=   -5.1581
 kinetic energy error for atom=    0.0000 (will be added to EATOM!!)
  PAW_PBE Cl 06Sep2000                  :
 energy of atom  2       EATOM= -409.7259
 kinetic energy error for atom=    0.0030 (will be added to EATOM!!)
 
 
 POSCAR: Achtung: Title of Simulation            
  positions in direct lattice
  velocities in cartesian coordinates
 exchange correlation table for  LEXCH =        8
   RHO(1)=    0.500       N(1)  =     2000
   RHO(2)=  100.500       N(2)  =     4000
 


--------------------------------------------------------------------------------------------------------


 ion  position               nearest neighbor table
   1  0.500  0.000  0.500-   5 2.83   6 2.83   7 2.83   7 2.83   5 2.83   6 2.83   3 4.00   4 4.00
                             2 4.00   2 4.00   3 4.00   3 4.00   3 4.00   2 4.00   4 4.00   4 4.00
   2  0.000  0.500  0.500-   5 2.83   6 2.83   8 2.83   8 2.83   6 2.83   5 2.83   3 4.00   4 4.00
                             1 4.00   1 4.00   4 4.00   3 4.00   4 4.00   1 4.00   3 4.00   4 4.00
   3  0.500  0.500  0.000-   5 2.83   7 2.83   8 2.83   5 2.83   7 2.83   8 2.83   1 4.00   2 4.00
                             1 4.00   1 4.00   4 4.00   2 4.00   1 4.00   2 4.00   4 4.00   4 4.00
   4  0.000  0.000  0.000-   6 2.83   7 2.83   8 2.83   6 2.83   8 2.83   7 2.83   1 4.00   2 4.00
                             1 4.00   2 4.00   3 4.00   2 4.00   2 4.00   1 4.00   3 4.00   3 4.00
   5  0.500  0.500  0.500-   1 2.83   2 2.83   3 2.83   3 2.83   1 2.83   2 2.83
   6  0.000  0.000  0.500-   1 2.83   2 2.83   4 2.83   4 2.83   2 2.83   1 2.83
   7  0.500  0.000  0.000-   1 2.83   3 2.83   4 2.83   1 2.83   3 2.83   4 2.83
   8  0.000  0.500  0.000-   2 2.83   3 2.83   4 2.83   2 2.83   4 2.83   3 2.83
 

IMPORTANT INFORMATION: All symmetrisations will be switched off!
NOSYMM: (Re-)initialisation of all symmetry stuff for point group C_1.

 
 
 KPOINTS: kptsfl                                  

Automatic generation of k-mesh.
Space group operators:
 irot       det(A)        alpha          n_x          n_y          n_z        tau_x        tau_y        tau_z
    1     1.000000     0.000000     1.000000     0.000000     0.000000     0.000000     0.000000     0.000000
 
 Subroutine IBZKPT returns following result:
 ===========================================
 
 Found    256 irreducible k-points:
 
 Following reciprocal coordinates:
            Coordinates               Weight
  0.062500  0.062500  0.062500      2.000000
  0.187500  0.062500  0.062500      2.000000
  0.312500  0.062500  0.062500      2.000000
  0.437500  0.062500  0.062500      2.000000
 -0.437500  0.062500  0.062500      2.000000
 -0.312500  0.062500  0.062500      2.000000
 -0.187500  0.062500  0.062500      2.000000
 -0.062500  0.062500  0.062500      2.000000
  0.062500  0.187500  0.062500      2.000000
  0.187500  0.187500  0.062500      2.000000
  0.312500  0.187500  0.062500      2.000000
  0.437500  0.187500  0.062500      2.000000
 -0.437500  0.187500  0.062500      2.000000
 -0.312500  0.187500  0.062500      2.000000
 -0.187500  0.187500  0.062500      2.000000
 -0.062500  0.187500  0.062500      2.000000
  0.062500  0.312500  0.062500      2.000000
  0.187500  0.312500  0.062500      2.000000
  0.312500  0.312500  0.062500      2.000000
  0.437500  0.312500  0.062500      2.000000
 -0.437500  0.312500  0.062500      2.000000
 -0.312500  0.312500  0.062500      2.000000
 -0.187500  0.312500  0.062500      2.000000
 -0.062500  0.312500  0.062500      2.000000
  0.062500  0.437500  0.062500      2.000000
  0.187500  0.437500  0.062500      2.000000
  0.312500  0.437500  0.062500      2.000000
  0.437500  0.437500  0.062500      2.000000
 -0.437500  0.437500  0.062500      2.000000
 -0.312500  0.437500  0.062500      2.000000
 -0.187500  0.437500  0.062500      2.000000
 -0.062500  0.437500  0.062500      2.000000
  0.062500 -0.437500  0.062500      2.000000
  0.187500 -0.437500  0.062500      2.000000
  0.312500 -0.437500  0.062500      2.000000
  0.437500 -0.437500  0.062500      2.000000
 -0.437500 -0.437500  0.062500      2.000000
 -0.312500 -0.437500  0.062500      2.000000
 -0.187500 -0.437500  0.062500      2.000000
 -0.062500 -0.437500  0.062500      2.000000
  0.062500 -0.312500  0.062500      2.000000
  0.187500 -0.312500  0.062500      2.000000
  0.312500 -0.312500  0.062500      2.000000
  0.437500 -0.312500  0.062500      2.000000
 -0.437500 -0.312500  0.062500      2.000000
 -0.312500 -0.312500  0.062500      2.000000
 -0.187500 -0.312500  0.062500      2.000000
 -0.062500 -0.312500  0.062500      2.000000
  0.062500 -0.187500  0.062500      2.000000
  0.187500 -0.187500  0.062500      2.000000
  0.312500 -0.187500  0.062500      2.000000
  0.437500 -0.187500  0.062500      2.000000
 -0.437500 -0.187500  0.062500      2.000000
 -0.312500 -0.187500  0.062500      2.000000
 -0.187500 -0.187500  0.062500      2.000000
 -0.062500 -0.187500  0.062500      2.000000
  0.062500 -0.062500  0.062500      2.000000
  0.187500 -0.062500  0.062500      2.000000
  0.312500 -0.062500  0.062500      2.000000
  0.437500 -0.062500  0.062500      2.000000
 -0.437500 -0.062500  0.062500      2.000000
 -0.312500 -0.062500  0.062500      2.000000
 -0.187500 -0.062500  0.062500      2.000000
 -0.062500 -0.062500  0.062500      2.000000
  0.062500  0.062500  0.187500      2.000000
  0.187500  0.062500  0.187500      2.000000
  0.312500  0.062500  0.187500      2.000000
  0.437500  0.062500  0.187500      2.000000
 -0.437500  0.062500  0.187500      2.000000
 -0.312500  0.062500  0.187500      2.000000
 -0.187500  0.062500  0.187500      2.000000
 -0.062500  0.062500  0.187500      2.000000
  0.062500  0.187500  0.187500      2.000000
  0.187500  0.187500  0.187500      2.000000
  0.312500  0.187500  0.187500      2.000000
  0.437500  0.187500  0.187500      2.000000
 -0.437500  0.187500  0.187500      2.000000
 -0.312500  0.187500  0.187500      2.000000
 -0.187500  0.187500  0.187500      2.000000
 -0.062500  0.187500  0.187500      2.000000
  0.062500  0.312500  0.187500      2.000000
  0.187500  0.312500  0.187500      2.000000
  0.312500  0.312500  0.187500      2.000000
  0.437500  0.312500  0.187500      2.000000
 -0.437500  0.312500  0.187500      2.000000
 -0.312500  0.312500  0.187500      2.000000
 -0.187500  0.312500  0.187500      2.000000
 -0.062500  0.312500  0.187500      2.000000
  0.062500  0.437500  0.187500      2.000000
  0.187500  0.437500  0.187500      2.000000
  0.312500  0.437500  0.187500      2.000000
  0.437500  0.437500  0.187500      2.000000
 -0.437500  0.437500  0.187500      2.000000
 -0.312500  0.437500  0.187500      2.000000
 -0.187500  0.437500  0.187500      2.000000
 -0.062500  0.437500  0.187500      2.000000
  0.062500 -0.437500  0.187500      2.000000
  0.187500 -0.437500  0.187500      2.000000
  0.312500 -0.437500  0.187500      2.000000
  0.437500 -0.437500  0.187500      2.000000
 -0.437500 -0.437500  0.187500      2.000000
 -0.312500 -0.437500  0.187500      2.000000
 -0.187500 -0.437500  0.187500      2.000000
 -0.062500 -0.437500  0.187500      2.000000
  0.062500 -0.312500  0.187500      2.000000
  0.187500 -0.312500  0.187500      2.000000
  0.312500 -0.312500  0.187500      2.000000
  0.437500 -0.312500  0.187500      2.000000
 -0.437500 -0.312500  0.187500      2.000000
 -0.312500 -0.312500  0.187500      2.000000
 -0.187500 -0.312500  0.187500      2.000000
 -0.062500 -0.312500  0.187500      2.000000
  0.062500 -0.187500  0.187500      2.000000
  0.187500 -0.187500  0.187500      2.000000
  0.312500 -0.187500  0.187500      2.000000
  0.437500 -0.187500  0.187500      2.000000
 -0.437500 -0.187500  0.187500      2.000000
 -0.312500 -0.187500  0.187500      2.000000
 -0.187500 -0.187500  0.187500      2.000000
 -0.062500 -0.187500  0.187500      2.000000
  0.062500 -0.062500  0.187500      2.000000
  0.187500 -0.062500  0.187500      2.000000
  0.312500 -0.062500  0.187500      2.000000
  0.437500 -0.062500  0.187500      2.000000
 -0.437500 -0.062500  0.187500      2.000000
 -0.312500 -0.062500  0.187500      2.000000
 -0.187500 -0.062500  0.187500      2.000000
 -0.062500 -0.062500  0.187500      2.000000
  0.062500  0.062500  0.312500      2.000000
  0.187500  0.062500  0.312500      2.000000
  0.312500  0.062500  0.312500      2.000000
  0.437500  0.062500  0.312500      2.000000
 -0.437500  0.062500  0.312500      2.000000
 -0.312500  0.062500  0.312500      2.000000
 -0.187500  0.062500  0.312500      2.000000
 -0.062500  0.062500  0.312500      2.000000
  0.062500  0.187500  0.312500      2.000000
  0.187500  0.187500  0.312500      2.000000
  0.312500  0.187500  0.312500      2.000000
  0.437500  0.187500  0.312500      2.000000
 -0.437500  0.187500  0.312500      2.000000
 -0.312500  0.187500  0.312500      2.000000
 -0.187500  0.187500  0.312500      2.000000
 -0.062500  0.187500  0.312500      2.000000
  0.062500  0.312500  0.312500      2.000000
  0.187500  0.312500  0.312500      2.000000
  0.312500  0.312500  0.312500      2.000000
  0.437500  0.312500  0.312500      2.000000
 -0.437500  0.312500  0.312500      2.000000
 -0.312500  0.312500  0.312500      2.000000
 -0.187500  0.312500  0.312500      2.000000
 -0.062500  0.312500  0.312500      2.000000
  0.062500  0.437500  0.312500      2.000000
  0.187500  0.437500  0.312500      2.000000
  0.312500  0.437500  0.312500      2.000000
  0.437500  0.437500  0.312500      2.000000
 -0.437500  0.437500  0.312500      2.000000
 -0.312500  0.437500  0.312500      2.000000
 -0.187500  0.437500  0.312500      2.000000
 -0.062500  0.437500  0.312500      2.000000
  0.062500 -0.437500  0.312500      2.000000
  0.187500 -0.437500  0.312500      2.000000
  0.312500 -0.437500  0.312500      2.000000
  0.437500 -0.437500  0.312500      2.000000
 -0.437500 -0.437500  0.312500      2.000000
 -0.312500 -0.437500  0.312500      2.000000
 -0.187500 -0.437500  0.312500      2.000000
 -0.062500 -0.437500  0.312500      2.000000
  0.062500 -0.312500  0.312500      2.000000
  0.187500 -0.312500  0.312500      2.000000
  0.312500 -0.312500  0.312500      2.000000
  0.437500 -0.312500  0.312500      2.000000
 -0.437500 -0.312500  0.312500      2.000000
 -0.312500 -0.312500  0.312500      2.000000
 -0.187500 -0.312500  0.312500      2.000000
 -0.062500 -0.312500  0.312500      2.000000
  0.062500 -0.187500  0.312500      2.000000
  0.187500 -0.187500  0.312500      2.000000
  0.312500 -0.187500  0.312500      2.000000
  0.437500 -0.187500  0.312500      2.000000
 -0.437500 -0.187500  0.312500      2.000000
 -0.312500 -0.187500  0.312500      2.000000
 -0.187500 -0.187500  0.312500      2.000000
 -0.062500 -0.187500  0.312500      2.000000
  0.062500 -0.062500  0.312500      2.000000
  0.187500 -0.062500  0.312500      2.000000
  0.312500 -0.062500  0.312500      2.000000
  0.437500 -0.062500  0.312500      2.000000
 -0.437500 -0.062500  0.312500      2.000000
 -0.312500 -0.062500  0.312500      2.000000
 -0.187500 -0.062500  0.312500      2.000000
 -0.062500 -0.062500  0.312500      2.000000
  0.062500  0.062500  0.437500      2.000000
  0.187500  0.062500  0.437500      2.000000
  0.312500  0.062500  0.437500      2.000000
  0.437500  0.062500  0.437500      2.000000
 -0.437500  0.062500  0.437500      2.000000
 -0.312500  0.062500  0.437500      2.000000
 -0.187500  0.062500  0.437500      2.000000
 -0.062500  0.062500  0.437500      2.000000
  0.062500  0.187500  0.437500      2.000000
  0.187500  0.187500  0.437500      2.000000
  0.312500  0.187500  0.437500      2.000000
  0.437500  0.187500  0.437500      2.000000
 -0.437500  0.187500  0.437500      2.000000
 -0.312500  0.187500  0.437500      2.000000
 -0.187500  0.187500  0.437500      2.000000
 -0.062500  0.187500  0.437500      2.000000
  0.062500  0.312500  0.437500      2.000000
  0.187500  0.312500  0.437500      2.000000
  0.312500  0.312500  0.437500      2.000000
  0.437500  0.312500  0.437500      2.000000
 -0.437500  0.312500  0.437500      2.000000
 -0.312500  0.312500  0.437500      2.000000
 -0.187500  0.312500  0.437500      2.000000
 -0.062500  0.312500  0.437500      2.000000
  0.062500  0.437500  0.437500      2.000000
  0.187500  0.437500  0.437500      2.000000
  0.312500  0.437500  0.437500      2.000000
  0.437500  0.437500  0.437500      2.000000
 -0.437500  0.437500  0.437500      2.000000
 -0.312500  0.437500  0.437500      2.000000
 -0.187500  0.437500  0.437500      2.000000
 -0.062500  0.437500  0.437500      2.000000
  0.062500 -0.437500  0.437500      2.000000
  0.187500 -0.437500  0.437500      2.000000
  0.312500 -0.437500  0.437500      2.000000
  0.437500 -0.437500  0.437500      2.000000
 -0.437500 -0.437500  0.437500      2.000000
 -0.312500 -0.437500  0.437500      2.000000
 -0.187500 -0.437500  0.437500      2.000000
 -0.062500 -0.437500  0.437500      2.000000
  0.062500 -0.312500  0.437500      2.000000
  0.187500 -0.312500  0.437500      2.000000
  0.312500 -0.312500  0.437500      2.000000
  0.437500 -0.312500  0.437500      2.000000
 -0.437500 -0.312500  0.437500      2.000000
 -0.312500 -0.312500  0.437500      2.000000
 -0.187500 -0.312500  0.437500      2.000000
 -0.062500 -0.312500  0.437500      2.000000
  0.062500 -0.187500  0.437500      2.000000
  0.187500 -0.187500  0.437500      2.000000
  0.312500 -0.187500  0.437500      2.000000
  0.437500 -0.187500  0.437500      2.000000
 -0.437500 -0.187500  0.437500      2.000000
 -0.312500 -0.187500  0.437500      2.000000
 -0.187500 -0.187500  0.437500      2.000000
 -0.062500 -0.187500  0.437500      2.000000
  0.062500 -0.062500  0.437500      2.000000
  0.187500 -0.062500  0.437500      2.000000
  0.312500 -0.062500  0.437500      2.000000
  0.437500 -0.062500  0.437500      2.000000
 -0.437500 -0.062500  0.437500      2.000000
 -0.312500 -0.062500  0.437500      2.000000
 -0.187500 -0.062500  0.437500      2.000000
 -0.062500 -0.062500  0.437500      2.000000
 
 Following cartesian coordinates:
            Coordinates               Weight
  0.011060  0.011060  0.011060      2.000000
  0.033180  0.011060  0.011060      2.000000
  0.055300  0.011060  0.011060      2.000000
  0.077420  0.011060  0.011060      2.000000
 -0.077420  0.011060  0.011060      2.000000
 -0.055300  0.011060  0.011060      2.000000
 -0.033180  0.011060  0.011060      2.000000
 -0.011060  0.011060  0.011060      2.000000
  0.011060  0.033180  0.011060      2.000000
  0.033180  0.033180  0.011060      2.000000
  0.055300  0.033180  0.011060      2.000000
  0.077420  0.033180  0.011060      2.000000
 -0.077420  0.033180  0.011060      2.000000
 -0.055300  0.033180  0.011060      2.000000
 -0.033180  0.033180  0.011060      2.000000
 -0.011060  0.033180  0.011060      2.000000
  0.011060  0.055300  0.011060      2.000000
  0.033180  0.055300  0.011060      2.000000
  0.055300  0.055300  0.011060      2.000000
  0.077420  0.055300  0.011060      2.000000
 -0.077420  0.055300  0.011060      2.000000
 -0.055300  0.055300  0.011060      2.000000
 -0.033180  0.055300  0.011060      2.000000
 -0.011060  0.055300  0.011060      2.000000
  0.011060  0.077420  0.011060      2.000000
  0.033180  0.077420  0.011060      2.000000
  0.055300  0.077420  0.011060      2.000000
  0.077420  0.077420  0.011060      2.000000
 -0.077420  0.077420  0.011060      2.000000
 -0.055300  0.077420  0.011060      2.000000
 -0.033180  0.077420  0.011060      2.000000
 -0.011060  0.077420  0.011060      2.000000
  0.011060 -0.077420  0.011060      2.000000
  0.033180 -0.077420  0.011060      2.000000
  0.055300 -0.077420  0.011060      2.000000
  0.077420 -0.077420  0.011060      2.000000
 -0.077420 -0.077420  0.011060      2.000000
 -0.055300 -0.077420  0.011060      2.000000
 -0.033180 -0.077420  0.011060      2.000000
 -0.011060 -0.077420  0.011060      2.000000
  0.011060 -0.055300  0.011060      2.000000
  0.033180 -0.055300  0.011060      2.000000
  0.055300 -0.055300  0.011060      2.000000
  0.077420 -0.055300  0.011060      2.000000
 -0.077420 -0.055300  0.011060      2.000000
 -0.055300 -0.055300  0.011060      2.000000
 -0.033180 -0.055300  0.011060      2.000000
 -0.011060 -0.055300  0.011060      2.000000
  0.011060 -0.033180  0.011060      2.000000
  0.033180 -0.033180  0.011060      2.000000
  0.055300 -0.033180  0.011060      2.000000
  0.077420 -0.033180  0.011060      2.000000
 -0.077420 -0.033180  0.011060      2.000000
 -0.055300 -0.033180  0.011060      2.000000
 -0.033180 -0.033180  0.011060      2.000000
 -0.011060 -0.033180  0.011060      2.000000
  0.011060 -0.011060  0.011060      2.000000
  0.033180 -0.011060  0.011060      2.000000
  0.055300 -0.011060  0.011060      2.000000
  0.077420 -0.011060  0.011060      2.000000
 -0.077420 -0.011060  0.011060      2.000000
 -0.055300 -0.011060  0.011060      2.000000
 -0.033180 -0.011060  0.011060      2.000000
 -0.011060 -0.011060  0.011060      2.000000
  0.011060  0.011060  0.033180      2.000000
  0.033180  0.011060  0.033180      2.000000
  0.055300  0.011060  0.033180      2.000000
  0.077420  0.011060  0.033180      2.000000
 -0.077420  0.011060  0.033180      2.000000
 -0.055300  0.011060  0.033180      2.000000
 -0.033180  0.011060  0.033180      2.000000
 -0.011060  0.011060  0.033180      2.000000
  0.011060  0.033180  0.033180      2.000000
  0.033180  0.033180  0.033180      2.000000
  0.055300  0.033180  0.033180      2.000000
  0.077420  0.033180  0.033180      2.000000
 -0.077420  0.033180  0.033180      2.000000
 -0.055300  0.033180  0.033180      2.000000
 -0.033180  0.033180  0.033180      2.000000
 -0.011060  0.033180  0.033180      2.000000
  0.011060  0.055300  0.033180      2.000000
  0.033180  0.055300  0.033180      2.000000
  0.055300  0.055300  0.033180      2.000000
  0.077420  0.055300  0.033180      2.000000
 -0.077420  0.055300  0.033180      2.000000
 -0.055300  0.055300  0.033180      2.000000
 -0.033180  0.055300  0.033180      2.000000
 -0.011060  0.055300  0.033180      2.000000
  0.011060  0.077420  0.033180      2.000000
  0.033180  0.077420  0.033180      2.000000
  0.055300  0.077420  0.033180      2.000000
  0.077420  0.077420  0.033180      2.000000
 -0.077420  0.077420  0.033180      2.000000
 -0.055300  0.077420  0.033180      2.000000
 -0.033180  0.077420  0.033180      2.000000
 -0.011060  0.077420  0.033180      2.000000
  0.011060 -0.077420  0.033180      2.000000
  0.033180 -0.077420  0.033180      2.000000
  0.055300 -0.077420  0.033180      2.000000
  0.077420 -0.077420  0.033180      2.000000
 -0.077420 -0.077420  0.033180      2.000000
 -0.055300 -0.077420  0.033180      2.000000
 -0.033180 -0.077420  0.033180      2.000000
 -0.011060 -0.077420  0.033180      2.000000
  0.011060 -0.055300  0.033180      2.000000
  0.033180 -0.055300  0.033180      2.000000
  0.055300 -0.055300  0.033180      2.000000
  0.077420 -0.055300  0.033180      2.000000
 -0.077420 -0.055300  0.033180      2.000000
 -0.055300 -0.055300  0.033180      2.000000
 -0.033180 -0.055300  0.033180      2.000000
 -0.011060 -0.055300  0.033180      2.000000
  0.011060 -0.033180  0.033180      2.000000
  0.033180 -0.033180  0.033180      2.000000
  0.055300 -0.033180  0.033180      2.000000
  0.077420 -0.033180  0.033180      2.000000
 -0.077420 -0.033180  0.033180      2.000000
 -0.055300 -0.033180  0.033180      2.000000
 -0.033180 -0.033180  0.033180      2.000000
 -0.011060 -0.033180  0.033180      2.000000
  0.011060 -0.011060  0.033180      2.000000
  0.033180 -0.011060  0.033180      2.000000
  0.055300 -0.011060  0.033180      2.000000
  0.077420 -0.011060  0.033180      2.000000
 -0.077420 -0.011060  0.033180      2.000000
 -0.055300 -0.011060  0.033180      2.000000
 -0.033180 -0.011060  0.033180      2.000000
 -0.011060 -0.011060  0.033180      2.000000
  0.011060  0.011060  0.055300      2.000000
  0.033180  0.011060  0.055300      2.000000
  0.055300  0.011060  0.055300      2.000000
  0.077420  0.011060  0.055300      2.000000
 -0.077420  0.011060  0.055300      2.000000
 -0.055300  0.011060  0.055300      2.000000
 -0.033180  0.011060  0.055300      2.000000
 -0.011060  0.011060  0.055300      2.000000
  0.011060  0.033180  0.055300      2.000000
  0.033180  0.033180  0.055300      2.000000
  0.055300  0.033180  0.055300      2.000000
  0.077420  0.033180  0.055300      2.000000
 -0.077420  0.033180  0.055300      2.000000
 -0.055300  0.033180  0.055300      2.000000
 -0.033180  0.033180  0.055300      2.000000
 -0.011060  0.033180  0.055300      2.000000
  0.011060  0.055300  0.055300      2.000000
  0.033180  0.055300  0.055300      2.000000
  0.055300  0.055300  0.055300      2.000000
  0.077420  0.055300  0.055300      2.000000
 -0.077420  0.055300  0.055300      2.000000
 -0.055300  0.055300  0.055300      2.000000
 -0.033180  0.055300  0.055300      2.000000
 -0.011060  0.055300  0.055300      2.000000
  0.011060  0.077420  0.055300      2.000000
  0.033180  0.077420  0.055300      2.000000
  0.055300  0.077420  0.055300      2.000000
  0.077420  0.077420  0.055300      2.000000
 -0.077420  0.077420  0.055300      2.000000
 -0.055300  0.077420  0.055300      2.000000
 -0.033180  0.077420  0.055300      2.000000
 -0.011060  0.077420  0.055300      2.000000
  0.011060 -0.077420  0.055300      2.000000
  0.033180 -0.077420  0.055300      2.000000
  0.055300 -0.077420  0.055300      2.000000
  0.077420 -0.077420  0.055300      2.000000
 -0.077420 -0.077420  0.055300      2.000000
 -0.055300 -0.077420  0.055300      2.000000
 -0.033180 -0.077420  0.055300      2.000000
 -0.011060 -0.077420  0.055300      2.000000
  0.011060 -0.055300  0.055300      2.000000
  0.033180 -0.055300  0.055300      2.000000
  0.055300 -0.055300  0.055300      2.000000
  0.077420 -0.055300  0.055300      2.000000
 -0.077420 -0.055300  0.055300      2.000000
 -0.055300 -0.055300  0.055300      2.000000
 -0.033180 -0.055300  0.055300      2.000000
 -0.011060 -0.055300  0.055300      2.000000
  0.011060 -0.033180  0.055300      2.000000
  0.033180 -0.033180  0.055300      2.000000
  0.055300 -0.033180  0.055300      2.000000
  0.077420 -0.033180  0.055300      2.000000
 -0.077420 -0.033180  0.055300      2.000000
 -0.055300 -0.033180  0.055300      2.000000
 -0.033180 -0.033180  0.055300      2.000000
 -0.011060 -0.033180  0.055300      2.000000
  0.011060 -0.011060  0.055300      2.000000
  0.033180 -0.011060  0.055300      2.000000
  0.055300 -0.011060  0.055300      2.000000
  0.077420 -0.011060  0.055300      2.000000
 -0.077420 -0.011060  0.055300      2.000000
 -0.055300 -0.011060  0.055300      2.000000
 -0.033180 -0.011060  0.055300      2.000000
 -0.011060 -0.011060  0.055300      2.000000
  0.011060  0.011060  0.077420      2.000000
  0.033180  0.011060  0.077420      2.000000
  0.055300  0.011060  0.077420      2.000000
  0.077420  0.011060  0.077420      2.000000
 -0.077420  0.011060  0.077420      2.000000
 -0.055300  0.011060  0.077420      2.000000
 -0.033180  0.011060  0.077420      2.000000
 -0.011060  0.011060  0.077420      2.000000
  0.011060  0.033180  0.077420      2.000000
  0.033180  0.033180  0.077420      2.000000
  0.055300  0.033180  0.077420      2.000000
  0.077420  0.033180  0.077420      2.000000
 -0.077420  0.033180  0.077420      2.000000
 -0.055300  0.033180  0.077420      2.000000
 -0.033180  0.033180  0.077420      2.000000
 -0.011060  0.033180  0.077420      2.000000
  0.011060  0.055300  0.077420      2.000000
  0.033180  0.055300  0.077420      2.000000
  0.055300  0.055300  0.077420      2.000000
  0.077420  0.055300  0.077420      2.000000
 -0.077420  0.055300  0.077420      2.000000
 -0.055300  0.055300  0.077420      2.000000
 -0.033180  0.055300  0.077420      2.000000
 -0.011060  0.055300  0.077420      2.000000
  0.011060  0.077420  0.077420      2.000000
  0.033180  0.077420  0.077420      2.000000
  0.055300  0.077420  0.077420      2.000000
  0.077420  0.077420  0.077420      2.000000
 -0.077420  0.077420  0.077420      2.000000
 -0.055300  0.077420  0.077420      2.000000
 -0.033180  0.077420  0.077420      2.000000
 -0.011060  0.077420  0.077420      2.000000
  0.011060 -0.077420  0.077420      2.000000
  0.033180 -0.077420  0.077420      2.000000
  0.055300 -0.077420  0.077420      2.000000
  0.077420 -0.077420  0.077420      2.000000
 -0.077420 -0.077420  0.077420      2.000000
 -0.055300 -0.077420  0.077420      2.000000
 -0.033180 -0.077420  0.077420      2.000000
 -0.011060 -0.077420  0.077420      2.000000
  0.011060 -0.055300  0.077420      2.000000
  0.033180 -0.055300  0.077420      2.000000
  0.055300 -0.055300  0.077420      2.000000
  0.077420 -0.055300  0.077420      2.000000
 -0.077420 -0.055300  0.077420      2.000000
 -0.055300 -0.055300  0.077420      2.000000
 -0.033180 -0.055300  0.077420      2.000000
 -0.011060 -0.055300  0.077420      2.000000
  0.011060 -0.033180  0.077420      2.000000
  0.033180 -0.033180  0.077420      2.000000
  0.055300 -0.033180  0.077420      2.000000
  0.077420 -0.033180  0.077420      2.000000
 -0.077420 -0.033180  0.077420      2.000000
 -0.055300 -0.033180  0.077420      2.000000
 -0.033180 -0.033180  0.077420      2.000000
 -0.011060 -0.033180  0.077420      2.000000
  0.011060 -0.011060  0.077420      2.000000
  0.033180 -0.011060  0.077420      2.000000
  0.055300 -0.011060  0.077420      2.000000
  0.077420 -0.011060  0.077420      2.000000
 -0.077420 -0.011060  0.077420      2.000000
 -0.055300 -0.011060  0.077420      2.000000
 -0.033180 -0.011060  0.077420      2.000000
 -0.011060 -0.011060  0.077420      2.000000
 
 TETIRR: Found   1536 inequivalent tetrahedra from     3072


--------------------------------------------------------------------------------------------------------




 Dimension of arrays:
   k-points           NKPTS =    256   k-points in BZ     NKDIM =    256   number of bands    NBANDS=     24
   number of dos      NEDOS =    301   number of ions     NIONS =      8
   non local maximal  LDIM  =      4   non local SUM 2l+1 LMDIM =      8
   total plane-waves  NPLWV =  74088
   max r-space proj   IRMAX =      1   max aug-charges    IRDMAX=  20186
   dimension x,y,z NGX =    42 NGY =   42 NGZ =   42
   dimension x,y,z NGXF=    84 NGYF=   84 NGZF=   84
   support grid    NGXF=    84 NGYF=   84 NGZF=   84
   ions per type =               4   4
   NGX,Y,Z   is equivalent  to a cutoff of  12.36, 12.36, 12.36 a.u.
   NGXF,Y,Z  is equivalent  to a cutoff of  24.71, 24.71, 24.71 a.u.

 SYSTEM =  NaCl                                    
 POSCAR =  Achtung: Title of Simulation            

 Startparameter for this run:
   NWRITE =      0    write-flag & timer
   PREC   = accura    normal or accurate (medium, high low for compatibility)
   ISTART =      1    job   : 0-new  1-cont  2-samecut
   ICHARG =      0    charge: 1-file 2-atom 10-const
   ISPIN  =      1    spin polarized calculation?
   LNONCOLLINEAR =      F non collinear calculations
   LSORBIT =      F    spin-orbit coupling
   INIWAV =      1    electr: 0-lowe 1-rand  2-diag
   LASPH  =      F    aspherical Exc in radial PAW
   METAGGA=      F    non-selfconsistent MetaGGA calc.

 Electronic Relaxation 1
   ENCUT  =  500.0 eV  36.75 Ry    6.06 a.u.  10.30 10.30 10.30*2*pi/ulx,y,z
   ENINI  =  500.0     initial cutoff
   ENAUG  =  356.2 eV  augmentation charge cutoff
   NELM   =     60;   NELMIN=  2; NELMDL=  0     # of ELM steps 
   EDIFF  = 0.1E-06   stopping-criterion for ELM
   LREAL  =      F    real-space projection
   NLSPLINE    = F    spline interpolate recip. space projectors
   LCOMPAT=      F    compatible to vasp.4.4
   GGA_COMPAT  = T    GGA compatible to vasp.4.4-vasp.4.6
   LMAXPAW     = -100 max onsite density
   LMAXMIX     =    2 max onsite mixed and CHGCAR
   VOSKOWN=      0    Vosko Wilk Nusair interpolation
   ROPT   =    0.00000   0.00000
 Ionic relaxation
   EDIFFG = 0.1E-05   stopping-criterion for IOM
   NSW    =      0    number of steps for IOM
   NBLOCK =      1;   KBLOCK =      1    inner block; outer block 
   IBRION =     -1    ionic relax: 0-MD 1-quasi-New 2-CG
   NFREE  =      0    steps in history (QN), initial steepest desc. (CG)
   ISIF   =      2    stress and relaxation
   IWAVPR =     10    prediction:  0-non 1-charg 2-wave 3-comb
   ISYM   =      0    0-nonsym 1-usesym 2-fastsym
   LCORR  =      T    Harris-Foulkes like correction to forces

   POTIM  = 0.5000    time-step for ionic-motion
   TEIN   =    0.0    initial temperature
   TEBEG  =    0.0;   TEEND  =   0.0 temperature during run
   SMASS  =  -3.00    Nose mass-parameter (am)
   estimated Nose-frequenzy (Omega)   =  0.10E-29 period in steps =****** mass=  -0.730E-27a.u.
   SCALEE = 1.0000    scale energy and forces
   NPACO  =    256;   APACO  = 16.0  distance and # of slots for P.C.
   PSTRESS=    0.0 pullay stress

  Mass of Ions in am
   POMASS =  22.99 35.45
  Ionic Valenz
   ZVAL   =   1.00  7.00
  Atomic Wigner-Seitz radii
   RWIGS  =  -1.00 -1.00
  virtual crystal weights 
   VCA    =   1.00  1.00
   NELECT =      32.0000    total number of electrons
   NUPDOWN=      -1.0000    fix difference up-down

 DOS related values:
   EMIN   =  10.00;   EMAX   =-10.00  energy-range for DOS
   EFERMI =   0.00
   ISMEAR =    -5;   SIGMA  =   0.20  broadening in eV -4-tet -1-fermi 0-gaus

 Electronic relaxation 2 (details)
   IALGO  =     38    algorithm
   LDIAG  =      T    sub-space diagonalisation (order eigenvalues)
   LSUBROT=      F    optimize rotation matrix (better conditioning)
   TURBO    =      0    0=normal 1=particle mesh
   IRESTART =      0    0=no restart 2=restart with 2 vectors
   NREBOOT  =      0    no. of reboots
   NMIN     =      0    reboot dimension
   EREF     =   0.00    reference energy to select bands
   IMIX   =      4    mixing-type and parameters
     AMIX     =   0.40;   BMIX     =  1.00
     AMIX_MAG =   1.60;   BMIX_MAG =  1.00
     AMIN     =   0.10
     WC   =   100.;   INIMIX=   1;  MIXPRE=   1;  MAXMIX= -45

 Intra band minimization:
   WEIMIN = 0.0000     energy-eigenvalue tresh-hold
   EBREAK =  0.10E-08  absolut break condition
   DEPER  =   0.30     relativ break condition  

   TIME   =   0.40     timestep for ELM

  volume/ion in A,a.u.               =      22.56       152.22
  Fermi-wavevector in a.u.,A,eV,Ry     =   0.919742  1.738061 11.509524  0.845926
  Thomas-Fermi vector in A             =   2.044970
 
 Write flags
   LWAVE        =      T    write WAVECAR
   LDOWNSAMPLE  =      F    k-point downsampling of WAVECAR
   LCHARG       =      F    write CHGCAR
   LVTOT        =      F    write LOCPOT, total local potential
   LVHAR        =      F    write LOCPOT, Hartree potential only
   LELF         =      F    write electronic localiz. function (ELF)
   LORBIT       =      0    0 simple, 1 ext, 2 COOP (PROOUT), +10 PAW based schemes


 Dipole corrections
   LMONO  =      F    monopole corrections only (constant potential shift)
   LDIPOL =      F    correct potential (dipole corrections)
   IDIPOL =      0    1-x, 2-y, 3-z, 4-all directions 
   EPSILON=  1.0000000 bulk dielectric constant

 Exchange correlation treatment:
   GGA     =    --    GGA type
   LEXCH   =     8    internal setting for exchange type
   VOSKOWN=      0    Vosko Wilk Nusair interpolation
   LHFCALC =     F    Hartree Fock is set to
   LHFONE  =     F    Hartree Fock one center treatment
   AEXX    =    0.0000 exact exchange contribution

 Linear response parameters
   LEPSILON=     F    determine dielectric tensor
   LRPA    =     F    only Hartree local field effects (RPA)
   LNABLA  =     F    use nabla operator in PAW spheres
   LVEL    =     F    velocity operator in full k-point grid
   LINTERFAST=   F  fast interpolation
   KINTER  =     0    interpolate to denser k-point grid
   CSHIFT  =0.1000    complex shift for real part using Kramers Kronig
   OMEGAMAX=  -1.0    maximum frequency
   DEG_THRESHOLD= 0.2000000E-02 threshold for treating states as degnerate
   RTIME   =   -0.100 relaxation time in fs
  (WPLASMAI=    0.000 imaginary part of plasma frequency in eV, 0.658/RTIME)
   DFIELD  = 0.0000000 0.0000000 0.0000000 field for delta impulse in time
 
 Orbital magnetization related:
   ORBITALMAG=     F  switch on orbital magnetization
   LCHIMAG   =     F  perturbation theory with respect to B field
   DQ        =  0.001000  dq finite difference perturbation B field
   LLRAUG    =     F  two centre corrections for induced B field



--------------------------------------------------------------------------------------------------------


 Static calculation
 charge density and potential will be updated during run
 non-spin polarized calculation
 Variant of blocked Davidson
 Davidson routine will perform the subspace rotation
 perform sub-space diagonalisation
    after iterative eigenvector-optimisation
 modified Broyden-mixing scheme, WC =      100.0
 initial mixing is a Kerker type mixing with AMIX =  0.4000 and BMIX =      1.0000
 Hartree-type preconditioning will be used
 using additional bands            8
 reciprocal scheme for non local part
 use partial core corrections
 calculate Harris-corrections to forces 
   (improved forces if not selfconsistent)
 use gradient corrections 
 use of overlap-Matrix (Vanderbilt PP)
 Fermi weights with tetrahedron method with Bloechl corrections


--------------------------------------------------------------------------------------------------------


  energy-cutoff  :      500.00
  volume of cell :      180.46
      direct lattice vectors                 reciprocal lattice vectors
     5.650999387  0.000000000  0.000000000     0.176959849  0.000000000  0.000000000
     0.000000000  5.650999387  0.000000000     0.000000000  0.176959849  0.000000000
     0.000000000  0.000000000  5.650999387     0.000000000  0.000000000  0.176959849

  length of vectors
     5.650999387  5.650999387  5.650999387     0.176959849  0.176959849  0.176959849


 
 old parameters found on file WAVECAR:
  energy-cutoff  :      500.00
  volume of cell :      180.46
      direct lattice vectors                 reciprocal lattice vectors
     5.650999387  0.000000000  0.000000000     0.176959849  0.000000000  0.000000000
     0.000000000  5.650999387  0.000000000     0.000000000  0.176959849  0.000000000
     0.000000000  0.000000000  5.650999387     0.000000000  0.000000000  0.176959849

  length of vectors

 
 k-points in units of 2pi/SCALE and weight: kptsfl                                  
   0.01105999  0.01105999  0.01105999       0.004
   0.03317997  0.01105999  0.01105999       0.004
   0.05529995  0.01105999  0.01105999       0.004
   0.07741993  0.01105999  0.01105999       0.004
  -0.07741993  0.01105999  0.01105999       0.004
  -0.05529995  0.01105999  0.01105999       0.004
  -0.03317997  0.01105999  0.01105999       0.004
  -0.01105999  0.01105999  0.01105999       0.004
   0.01105999  0.03317997  0.01105999       0.004
   0.03317997  0.03317997  0.01105999       0.004
   0.05529995  0.03317997  0.01105999       0.004
   0.07741993  0.03317997  0.01105999       0.004
  -0.07741993  0.03317997  0.01105999       0.004
  -0.05529995  0.03317997  0.01105999       0.004
  -0.03317997  0.03317997  0.01105999       0.004
  -0.01105999  0.03317997  0.01105999       0.004
   0.01105999  0.05529995  0.01105999       0.004
   0.03317997  0.05529995  0.01105999       0.004
   0.05529995  0.05529995  0.01105999       0.004
   0.07741993  0.05529995  0.01105999       0.004
  -0.07741993  0.05529995  0.01105999       0.004
  -0.05529995  0.05529995  0.01105999       0.004
  -0.03317997  0.05529995  0.01105999       0.004
  -0.01105999  0.05529995  0.01105999       0.004
   0.01105999  0.07741993  0.01105999       0.004
   0.03317997  0.07741993  0.01105999       0.004
   0.05529995  0.07741993  0.01105999       0.004
   0.07741993  0.07741993  0.01105999       0.004
  -0.07741993  0.07741993  0.01105999       0.004
  -0.05529995  0.07741993  0.01105999       0.004
  -0.03317997  0.07741993  0.01105999       0.004
  -0.01105999  0.07741993  0.01105999       0.004
   0.01105999 -0.07741993  0.01105999       0.004
   0.03317997 -0.07741993  0.01105999       0.004
   0.05529995 -0.07741993  0.01105999       0.004
   0.07741993 -0.07741993  0.01105999       0.004
  -0.07741993 -0.07741993  0.01105999       0.004
  -0.05529995 -0.07741993  0.01105999       0.004
  -0.03317997 -0.07741993  0.01105999       0.004
  -0.01105999 -0.07741993  0.01105999       0.004
   0.01105999 -0.05529995  0.01105999       0.004
   0.03317997 -0.05529995  0.01105999       0.004
   0.05529995 -0.05529995  0.01105999       0.004
   0.07741993 -0.05529995  0.01105999       0.004
  -0.07741993 -0.05529995  0.01105999       0.004
  -0.05529995 -0.05529995  0.01105999       0.004
  -0.03317997 -0.05529995  0.01105999       0.004
  -0.01105999 -0.05529995  0.01105999       0.004
   0.01105999 -0.03317997  0.01105999       0.004
   0.03317997 -0.03317997  0.01105999       0.004
   0.05529995 -0.03317997  0.01105999       0.004
   0.07741993 -0.03317997  0.01105999       0.004
  -0.07741993 -0.03317997  0.01105999       0.004
  -0.05529995 -0.03317997  0.01105999       0.004
  -0.03317997 -0.03317997  0.01105999       0.004
  -0.01105999 -0.03317997  0.01105999       0.004
   0.01105999 -0.01105999  0.01105999       0.004
   0.03317997 -0.01105999  0.01105999       0.004
   0.05529995 -0.01105999  0.01105999       0.004
   0.07741993 -0.01105999  0.01105999       0.004
  -0.07741993 -0.01105999  0.01105999       0.004
  -0.05529995 -0.01105999  0.01105999       0.004
  -0.03317997 -0.01105999  0.01105999       0.004
  -0.01105999 -0.01105999  0.01105999       0.004
   0.01105999  0.01105999  0.03317997       0.004
   0.03317997  0.01105999  0.03317997       0.004
   0.05529995  0.01105999  0.03317997       0.004
   0.07741993  0.01105999  0.03317997       0.004
  -0.07741993  0.01105999  0.03317997       0.004
  -0.05529995  0.01105999  0.03317997       0.004
  -0.03317997  0.01105999  0.03317997       0.004
  -0.01105999  0.01105999  0.03317997       0.004
   0.01105999  0.03317997  0.03317997       0.004
   0.03317997  0.03317997  0.03317997       0.004
   0.05529995  0.03317997  0.03317997       0.004
   0.07741993  0.03317997  0.03317997       0.004
  -0.07741993  0.03317997  0.03317997       0.004
  -0.05529995  0.03317997  0.03317997       0.004
  -0.03317997  0.03317997  0.03317997       0.004
  -0.01105999  0.03317997  0.03317997       0.004
   0.01105999  0.05529995  0.03317997       0.004
   0.03317997  0.05529995  0.03317997       0.004
   0.05529995  0.05529995  0.03317997       0.004
   0.07741993  0.05529995  0.03317997       0.004
  -0.07741993  0.05529995  0.03317997       0.004
  -0.05529995  0.05529995  0.03317997       0.004
  -0.03317997  0.05529995  0.03317997       0.004
  -0.01105999  0.05529995  0.03317997       0.004
   0.01105999  0.07741993  0.03317997       0.004
   0.03317997  0.07741993  0.03317997       0.004
   0.05529995  0.07741993  0.03317997       0.004
   0.07741993  0.07741993  0.03317997       0.004
  -0.07741993  0.07741993  0.03317997       0.004
  -0.05529995  0.07741993  0.03317997       0.004
  -0.03317997  0.07741993  0.03317997       0.004
  -0.01105999  0.07741993  0.03317997       0.004
   0.01105999 -0.07741993  0.03317997       0.004
   0.03317997 -0.07741993  0.03317997       0.004
   0.05529995 -0.07741993  0.03317997       0.004
   0.07741993 -0.07741993  0.03317997       0.004
  -0.07741993 -0.07741993  0.03317997       0.004
  -0.05529995 -0.07741993  0.03317997       0.004
  -0.03317997 -0.07741993  0.03317997       0.004
  -0.01105999 -0.07741993  0.03317997       0.004
   0.01105999 -0.05529995  0.03317997       0.004
   0.03317997 -0.05529995  0.03317997       0.004
   0.05529995 -0.05529995  0.03317997       0.004
   0.07741993 -0.05529995  0.03317997       0.004
  -0.07741993 -0.05529995  0.03317997       0.004
  -0.05529995 -0.05529995  0.03317997       0.004
  -0.03317997 -0.05529995  0.03317997       0.004
  -0.01105999 -0.05529995  0.03317997       0.004
   0.01105999 -0.03317997  0.03317997       0.004
   0.03317997 -0.03317997  0.03317997       0.004
   0.05529995 -0.03317997  0.03317997       0.004
   0.07741993 -0.03317997  0.03317997       0.004
  -0.07741993 -0.03317997  0.03317997       0.004
  -0.05529995 -0.03317997  0.03317997       0.004
  -0.03317997 -0.03317997  0.03317997       0.004
  -0.01105999 -0.03317997  0.03317997       0.004
   0.01105999 -0.01105999  0.03317997       0.004
   0.03317997 -0.01105999  0.03317997       0.004
   0.05529995 -0.01105999  0.03317997       0.004
   0.07741993 -0.01105999  0.03317997       0.004
  -0.07741993 -0.01105999  0.03317997       0.004
  -0.05529995 -0.01105999  0.03317997       0.004
  -0.03317997 -0.01105999  0.03317997       0.004
  -0.01105999 -0.01105999  0.03317997       0.004
   0.01105999  0.01105999  0.05529995       0.004
   0.03317997  0.01105999  0.05529995       0.004
   0.05529995  0.01105999  0.05529995       0.004
   0.07741993  0.01105999  0.05529995       0.004
  -0.07741993  0.01105999  0.05529995       0.004
  -0.05529995  0.01105999  0.05529995       0.004
  -0.03317997  0.01105999  0.05529995       0.004
  -0.01105999  0.01105999  0.05529995       0.004
   0.01105999  0.03317997  0.05529995       0.004
   0.03317997  0.03317997  0.05529995       0.004
   0.05529995  0.03317997  0.05529995       0.004
   0.07741993  0.03317997  0.05529995       0.004
  -0.07741993  0.03317997  0.05529995       0.004
  -0.05529995  0.03317997  0.05529995       0.004
  -0.03317997  0.03317997  0.05529995       0.004
  -0.01105999  0.03317997  0.05529995       0.004
   0.01105999  0.05529995  0.05529995       0.004
   0.03317997  0.05529995  0.05529995       0.004
   0.05529995  0.05529995  0.05529995       0.004
   0.07741993  0.05529995  0.05529995       0.004
  -0.07741993  0.05529995  0.05529995       0.004
  -0.05529995  0.05529995  0.05529995       0.004
  -0.03317997  0.05529995  0.05529995       0.004
  -0.01105999  0.05529995  0.05529995       0.004
   0.01105999  0.07741993  0.05529995       0.004
   0.03317997  0.07741993  0.05529995       0.004
   0.05529995  0.07741993  0.05529995       0.004
   0.07741993  0.07741993  0.05529995       0.004
  -0.07741993  0.07741993  0.05529995       0.004
  -0.05529995  0.07741993  0.05529995       0.004
  -0.03317997  0.07741993  0.05529995       0.004
  -0.01105999  0.07741993  0.05529995       0.004
   0.01105999 -0.07741993  0.05529995       0.004
   0.03317997 -0.07741993  0.05529995       0.004
   0.05529995 -0.07741993  0.05529995       0.004
   0.07741993 -0.07741993  0.05529995       0.004
  -0.07741993 -0.07741993  0.05529995       0.004
  -0.05529995 -0.07741993  0.05529995       0.004
  -0.03317997 -0.07741993  0.05529995       0.004
  -0.01105999 -0.07741993  0.05529995       0.004
   0.01105999 -0.05529995  0.05529995       0.004
   0.03317997 -0.05529995  0.05529995       0.004
   0.05529995 -0.05529995  0.05529995       0.004
   0.07741993 -0.05529995  0.05529995       0.004
  -0.07741993 -0.05529995  0.05529995       0.004
  -0.05529995 -0.05529995  0.05529995       0.004
  -0.03317997 -0.05529995  0.05529995       0.004
  -0.01105999 -0.05529995  0.05529995       0.004
   0.01105999 -0.03317997  0.05529995       0.004
   0.03317997 -0.03317997  0.05529995       0.004
   0.05529995 -0.03317997  0.05529995       0.004
   0.07741993 -0.03317997  0.05529995       0.004
  -0.07741993 -0.03317997  0.05529995       0.004
  -0.05529995 -0.03317997  0.05529995       0.004
  -0.03317997 -0.03317997  0.05529995       0.004
  -0.01105999 -0.03317997  0.05529995       0.004
   0.01105999 -0.01105999  0.05529995       0.004
   0.03317997 -0.01105999  0.05529995       0.004
   0.05529995 -0.01105999  0.05529995       0.004
   0.07741993 -0.01105999  0.05529995       0.004
  -0.07741993 -0.01105999  0.05529995       0.004
  -0.05529995 -0.01105999  0.05529995       0.004
  -0.03317997 -0.01105999  0.05529995       0.004
  -0.01105999 -0.01105999  0.05529995       0.004
   0.01105999  0.01105999  0.07741993       0.004
   0.03317997  0.01105999  0.07741993       0.004
   0.05529995  0.01105999  0.07741993       0.004
   0.07741993  0.01105999  0.07741993       0.004
  -0.07741993  0.01105999  0.07741993       0.004
  -0.05529995  0.01105999  0.07741993       0.004
  -0.03317997  0.01105999  0.07741993       0.004
  -0.01105999  0.01105999  0.07741993       0.004
   0.01105999  0.03317997  0.07741993       0.004
   0.03317997  0.03317997  0.07741993       0.004
   0.05529995  0.03317997  0.07741993       0.004
   0.07741993  0.03317997  0.07741993       0.004
  -0.07741993  0.03317997  0.07741993       0.004
  -0.05529995  0.03317997  0.07741993       0.004
  -0.03317997  0.03317997  0.07741993       0.004
  -0.01105999  0.03317997  0.07741993       0.004
   0.01105999  0.05529995  0.07741993       0.004
   0.03317997  0.05529995  0.07741993       0.004
   0.05529995  0.05529995  0.07741993       0.004
   0.07741993  0.05529995  0.07741993       0.004
  -0.07741993  0.05529995  0.07741993       0.004
  -0.05529995  0.05529995  0.07741993       0.004
  -0.03317997  0.05529995  0.07741993       0.004
  -0.01105999  0.05529995  0.07741993       0.004
   0.01105999  0.07741993  0.07741993       0.004
   0.03317997  0.07741993  0.07741993       0.004
   0.05529995  0.07741993  0.07741993       0.004
   0.07741993  0.07741993  0.07741993       0.004
  -0.07741993  0.07741993  0.07741993       0.004
  -0.05529995  0.07741993  0.07741993       0.004
  -0.03317997  0.07741993  0.07741993       0.004
  -0.01105999  0.07741993  0.07741993       0.004
   0.01105999 -0.07741993  0.07741993       0.004
   0.03317997 -0.07741993  0.07741993       0.004
   0.05529995 -0.07741993  0.07741993       0.004
   0.07741993 -0.07741993  0.07741993       0.004
  -0.07741993 -0.07741993  0.07741993       0.004
  -0.05529995 -0.07741993  0.07741993       0.004
  -0.03317997 -0.07741993  0.07741993       0.004
  -0.01105999 -0.07741993  0.07741993       0.004
   0.01105999 -0.05529995  0.07741993       0.004
   0.03317997 -0.05529995  0.07741993       0.004
   0.05529995 -0.05529995  0.07741993       0.004
   0.07741993 -0.05529995  0.07741993       0.004
  -0.07741993 -0.05529995  0.07741993       0.004
  -0.05529995 -0.05529995  0.07741993       0.004
  -0.03317997 -0.05529995  0.07741993       0.004
  -0.01105999 -0.05529995  0.07741993       0.004
   0.01105999 -0.03317997  0.07741993       0.004
   0.03317997 -0.03317997  0.07741993       0.004
   0.05529995 -0.03317997  0.07741993       0.004
   0.07741993 -0.03317997  0.07741993       0.004
  -0.07741993 -0.03317997  0.07741993       0.004
  -0.05529995 -0.03317997  0.07741993       0.004
  -0.03317997 -0.03317997  0.07741993       0.004
  -0.01105999 -0.03317997  0.07741993       0.004
   0.01105999 -0.01105999  0.07741993       0.004
   0.03317997 -0.01105999  0.07741993       0.004
   0.05529995 -0.01105999  0.07741993       0.004
   0.07741993 -0.01105999  0.07741993       0.004
  -0.07741993 -0.01105999  0.07741993       0.004
  -0.05529995 -0.01105999  0.07741993       0.004
  -0.03317997 -0.01105999  0.07741993       0.004
  -0.01105999 -0.01105999  0.07741993       0.004
 
 k-points in reciprocal lattice and weights: kptsfl                                  
   0.06250000  0.06250000  0.06250000       0.004
   0.18750000  0.06250000  0.06250000       0.004
   0.31250000  0.06250000  0.06250000       0.004
   0.43750000  0.06250000  0.06250000       0.004
  -0.43750000  0.06250000  0.06250000       0.004
  -0.31250000  0.06250000  0.06250000       0.004
  -0.18750000  0.06250000  0.06250000       0.004
  -0.06250000  0.06250000  0.06250000       0.004
   0.06250000  0.18750000  0.06250000       0.004
   0.18750000  0.18750000  0.06250000       0.004
   0.31250000  0.18750000  0.06250000       0.004
   0.43750000  0.18750000  0.06250000       0.004
  -0.43750000  0.18750000  0.06250000       0.004
  -0.31250000  0.18750000  0.06250000       0.004
  -0.18750000  0.18750000  0.06250000       0.004
  -0.06250000  0.18750000  0.06250000       0.004
   0.06250000  0.31250000  0.06250000       0.004
   0.18750000  0.31250000  0.06250000       0.004
   0.31250000  0.31250000  0.06250000       0.004
   0.43750000  0.31250000  0.06250000       0.004
  -0.43750000  0.31250000  0.06250000       0.004
  -0.31250000  0.31250000  0.06250000       0.004
  -0.18750000  0.31250000  0.06250000       0.004
  -0.06250000  0.31250000  0.06250000       0.004
   0.06250000  0.43750000  0.06250000       0.004
   0.18750000  0.43750000  0.06250000       0.004
   0.31250000  0.43750000  0.06250000       0.004
   0.43750000  0.43750000  0.06250000       0.004
  -0.43750000  0.43750000  0.06250000       0.004
  -0.31250000  0.43750000  0.06250000       0.004
  -0.18750000  0.43750000  0.06250000       0.004
  -0.06250000  0.43750000  0.06250000       0.004
   0.06250000 -0.43750000  0.06250000       0.004
   0.18750000 -0.43750000  0.06250000       0.004
   0.31250000 -0.43750000  0.06250000       0.004
   0.43750000 -0.43750000  0.06250000       0.004
  -0.43750000 -0.43750000  0.06250000       0.004
  -0.31250000 -0.43750000  0.06250000       0.004
  -0.18750000 -0.43750000  0.06250000       0.004
  -0.06250000 -0.43750000  0.06250000       0.004
   0.06250000 -0.31250000  0.06250000       0.004
   0.18750000 -0.31250000  0.06250000       0.004
   0.31250000 -0.31250000  0.06250000       0.004
   0.43750000 -0.31250000  0.06250000       0.004
  -0.43750000 -0.31250000  0.06250000       0.004
  -0.31250000 -0.31250000  0.06250000       0.004
  -0.18750000 -0.31250000  0.06250000       0.004
  -0.06250000 -0.31250000  0.06250000       0.004
   0.06250000 -0.18750000  0.06250000       0.004
   0.18750000 -0.18750000  0.06250000       0.004
   0.31250000 -0.18750000  0.06250000       0.004
   0.43750000 -0.18750000  0.06250000       0.004
  -0.43750000 -0.18750000  0.06250000       0.004
  -0.31250000 -0.18750000  0.06250000       0.004
  -0.18750000 -0.18750000  0.06250000       0.004
  -0.06250000 -0.18750000  0.06250000       0.004
   0.06250000 -0.06250000  0.06250000       0.004
   0.18750000 -0.06250000  0.06250000       0.004
   0.31250000 -0.06250000  0.06250000       0.004
   0.43750000 -0.06250000  0.06250000       0.004
  -0.43750000 -0.06250000  0.06250000       0.004
  -0.31250000 -0.06250000  0.06250000       0.004
  -0.18750000 -0.06250000  0.06250000       0.004
  -0.06250000 -0.06250000  0.06250000       0.004
   0.06250000  0.06250000  0.18750000       0.004
   0.18750000  0.06250000  0.18750000       0.004
   0.31250000  0.06250000  0.18750000       0.004
   0.43750000  0.06250000  0.18750000       0.004
  -0.43750000  0.06250000  0.18750000       0.004
  -0.31250000  0.06250000  0.18750000       0.004
  -0.18750000  0.06250000  0.18750000       0.004
  -0.06250000  0.06250000  0.18750000       0.004
   0.06250000  0.18750000  0.18750000       0.004
   0.18750000  0.18750000  0.18750000       0.004
   0.31250000  0.18750000  0.18750000       0.004
   0.43750000  0.18750000  0.18750000       0.004
  -0.43750000  0.18750000  0.18750000       0.004
  -0.31250000  0.18750000  0.18750000       0.004
  -0.18750000  0.18750000  0.18750000       0.004
  -0.06250000  0.18750000  0.18750000       0.004
   0.06250000  0.31250000  0.18750000       0.004
   0.18750000  0.31250000  0.18750000       0.004
   0.31250000  0.31250000  0.18750000       0.004
   0.43750000  0.31250000  0.18750000       0.004
  -0.43750000  0.31250000  0.18750000       0.004
  -0.31250000  0.31250000  0.18750000       0.004
  -0.18750000  0.31250000  0.18750000       0.004
  -0.06250000  0.31250000  0.18750000       0.004
   0.06250000  0.43750000  0.18750000       0.004
   0.18750000  0.43750000  0.18750000       0.004
   0.31250000  0.43750000  0.18750000       0.004
   0.43750000  0.43750000  0.18750000       0.004
  -0.43750000  0.43750000  0.18750000       0.004
  -0.31250000  0.43750000  0.18750000       0.004
  -0.18750000  0.43750000  0.18750000       0.004
  -0.06250000  0.43750000  0.18750000       0.004
   0.06250000 -0.43750000  0.18750000       0.004
   0.18750000 -0.43750000  0.18750000       0.004
   0.31250000 -0.43750000  0.18750000       0.004
   0.43750000 -0.43750000  0.18750000       0.004
  -0.43750000 -0.43750000  0.18750000       0.004
  -0.31250000 -0.43750000  0.18750000       0.004
  -0.18750000 -0.43750000  0.18750000       0.004
  -0.06250000 -0.43750000  0.18750000       0.004
   0.06250000 -0.31250000  0.18750000       0.004
   0.18750000 -0.31250000  0.18750000       0.004
   0.31250000 -0.31250000  0.18750000       0.004
   0.43750000 -0.31250000  0.18750000       0.004
  -0.43750000 -0.31250000  0.18750000       0.004
  -0.31250000 -0.31250000  0.18750000       0.004
  -0.18750000 -0.31250000  0.18750000       0.004
  -0.06250000 -0.31250000  0.18750000       0.004
   0.06250000 -0.18750000  0.18750000       0.004
   0.18750000 -0.18750000  0.18750000       0.004
   0.31250000 -0.18750000  0.18750000       0.004
   0.43750000 -0.18750000  0.18750000       0.004
  -0.43750000 -0.18750000  0.18750000       0.004
  -0.31250000 -0.18750000  0.18750000       0.004
  -0.18750000 -0.18750000  0.18750000       0.004
  -0.06250000 -0.18750000  0.18750000       0.004
   0.06250000 -0.06250000  0.18750000       0.004
   0.18750000 -0.06250000  0.18750000       0.004
   0.31250000 -0.06250000  0.18750000       0.004
   0.43750000 -0.06250000  0.18750000       0.004
  -0.43750000 -0.06250000  0.18750000       0.004
  -0.31250000 -0.06250000  0.18750000       0.004
  -0.18750000 -0.06250000  0.18750000       0.004
  -0.06250000 -0.06250000  0.18750000       0.004
   0.06250000  0.06250000  0.31250000       0.004
   0.18750000  0.06250000  0.31250000       0.004
   0.31250000  0.06250000  0.31250000       0.004
   0.43750000  0.06250000  0.31250000       0.004
  -0.43750000  0.06250000  0.31250000       0.004
  -0.31250000  0.06250000  0.31250000       0.004
  -0.18750000  0.06250000  0.31250000       0.004
  -0.06250000  0.06250000  0.31250000       0.004
   0.06250000  0.18750000  0.31250000       0.004
   0.18750000  0.18750000  0.31250000       0.004
   0.31250000  0.18750000  0.31250000       0.004
   0.43750000  0.18750000  0.31250000       0.004
  -0.43750000  0.18750000  0.31250000       0.004
  -0.31250000  0.18750000  0.31250000       0.004
  -0.18750000  0.18750000  0.31250000       0.004
  -0.06250000  0.18750000  0.31250000       0.004
   0.06250000  0.31250000  0.31250000       0.004
   0.18750000  0.31250000  0.31250000       0.004
   0.31250000  0.31250000  0.31250000       0.004
   0.43750000  0.31250000  0.31250000       0.004
  -0.43750000  0.31250000  0.31250000       0.004
  -0.31250000  0.31250000  0.31250000       0.004
  -0.18750000  0.31250000  0.31250000       0.004
  -0.06250000  0.31250000  0.31250000       0.004
   0.06250000  0.43750000  0.31250000       0.004
   0.18750000  0.43750000  0.31250000       0.004
   0.31250000  0.43750000  0.31250000       0.004
   0.43750000  0.43750000  0.31250000       0.004
  -0.43750000  0.43750000  0.31250000       0.004
  -0.31250000  0.43750000  0.31250000       0.004
  -0.18750000  0.43750000  0.31250000       0.004
  -0.06250000  0.43750000  0.31250000       0.004
   0.06250000 -0.43750000  0.31250000       0.004
   0.18750000 -0.43750000  0.31250000       0.004
   0.31250000 -0.43750000  0.31250000       0.004
   0.43750000 -0.43750000  0.31250000       0.004
  -0.43750000 -0.43750000  0.31250000       0.004
  -0.31250000 -0.43750000  0.31250000       0.004
  -0.18750000 -0.43750000  0.31250000       0.004
  -0.06250000 -0.43750000  0.31250000       0.004
   0.06250000 -0.31250000  0.31250000       0.004
   0.18750000 -0.31250000  0.31250000       0.004
   0.31250000 -0.31250000  0.31250000       0.004
   0.43750000 -0.31250000  0.31250000       0.004
  -0.43750000 -0.31250000  0.31250000       0.004
  -0.31250000 -0.31250000  0.31250000       0.004
  -0.18750000 -0.31250000  0.31250000       0.004
  -0.06250000 -0.31250000  0.31250000       0.004
   0.06250000 -0.18750000  0.31250000       0.004
   0.18750000 -0.18750000  0.31250000       0.004
   0.31250000 -0.18750000  0.31250000       0.004
   0.43750000 -0.18750000  0.31250000       0.004
  -0.43750000 -0.18750000  0.31250000       0.004
  -0.31250000 -0.18750000  0.31250000       0.004
  -0.18750000 -0.18750000  0.31250000       0.004
  -0.06250000 -0.18750000  0.31250000       0.004
   0.06250000 -0.06250000  0.31250000       0.004
   0.18750000 -0.06250000  0.31250000       0.004
   0.31250000 -0.06250000  0.31250000       0.004
   0.43750000 -0.06250000  0.31250000       0.004
  -0.43750000 -0.06250000  0.31250000       0.004
  -0.31250000 -0.06250000  0.31250000       0.004
  -0.18750000 -0.06250000  0.31250000       0.004
  -0.06250000 -0.06250000  0.31250000       0.004
   0.06250000  0.06250000  0.43750000       0.004
   0.18750000  0.06250000  0.43750000       0.004
   0.31250000  0.06250000  0.43750000       0.004
   0.43750000  0.06250000  0.43750000       0.004
  -0.43750000  0.06250000  0.43750000       0.004
  -0.31250000  0.06250000  0.43750000       0.004
  -0.18750000  0.06250000  0.43750000       0.004
  -0.06250000  0.06250000  0.43750000       0.004
   0.06250000  0.18750000  0.43750000       0.004
   0.18750000  0.18750000  0.43750000       0.004
   0.31250000  0.18750000  0.43750000       0.004
   0.43750000  0.18750000  0.43750000       0.004
  -0.43750000  0.18750000  0.43750000       0.004
  -0.31250000  0.18750000  0.43750000       0.004
  -0.18750000  0.18750000  0.43750000       0.004
  -0.06250000  0.18750000  0.43750000       0.004
   0.06250000  0.31250000  0.43750000       0.004
   0.18750000  0.31250000  0.43750000       0.004
   0.31250000  0.31250000  0.43750000       0.004
   0.43750000  0.31250000  0.43750000       0.004
  -0.43750000  0.31250000  0.43750000       0.004
  -0.31250000  0.31250000  0.43750000       0.004
  -0.18750000  0.31250000  0.43750000       0.004
  -0.06250000  0.31250000  0.43750000       0.004
   0.06250000  0.43750000  0.43750000       0.004
   0.18750000  0.43750000  0.43750000       0.004
   0.31250000  0.43750000  0.43750000       0.004
   0.43750000  0.43750000  0.43750000       0.004
  -0.43750000  0.43750000  0.43750000       0.004
  -0.31250000  0.43750000  0.43750000       0.004
  -0.18750000  0.43750000  0.43750000       0.004
  -0.06250000  0.43750000  0.43750000       0.004
   0.06250000 -0.43750000  0.43750000       0.004
   0.18750000 -0.43750000  0.43750000       0.004
   0.31250000 -0.43750000  0.43750000       0.004
   0.43750000 -0.43750000  0.43750000       0.004
  -0.43750000 -0.43750000  0.43750000       0.004
  -0.31250000 -0.43750000  0.43750000       0.004
  -0.18750000 -0.43750000  0.43750000       0.004
  -0.06250000 -0.43750000  0.43750000       0.004
   0.06250000 -0.31250000  0.43750000       0.004
   0.18750000 -0.31250000  0.43750000       0.004
   0.31250000 -0.31250000  0.43750000       0.004
   0.43750000 -0.31250000  0.43750000       0.004
  -0.43750000 -0.31250000  0.43750000       0.004
  -0.31250000 -0.31250000  0.43750000       0.004
  -0.18750000 -0.31250000  0.43750000       0.004
  -0.06250000 -0.31250000  0.43750000       0.004
   0.06250000 -0.18750000  0.43750000       0.004
   0.18750000 -0.18750000  0.43750000       0.004
   0.31250000 -0.18750000  0.43750000       0.004
   0.43750000 -0.18750000  0.43750000       0.004
  -0.43750000 -0.18750000  0.43750000       0.004
  -0.31250000 -0.18750000  0.43750000       0.004
  -0.18750000 -0.18750000  0.43750000       0.004
  -0.06250000 -0.18750000  0.43750000       0.004
   0.06250000 -0.06250000  0.43750000       0.004
   0.18750000 -0.06250000  0.43750000       0.004
   0.31250000 -0.06250000  0.43750000       0.004
   0.43750000 -0.06250000  0.43750000       0.004
  -0.43750000 -0.06250000  0.43750000       0.004
  -0.31250000 -0.06250000  0.43750000       0.004
  -0.18750000 -0.06250000  0.43750000       0.004
  -0.06250000 -0.06250000  0.43750000       0.004
 
 position of ions in fractional coordinates (direct lattice) 
   0.50000000  0.00000000  0.50000000
   0.00000000  0.50000000  0.50000000
   0.50000000  0.50000000  0.00000000
   0.00000000  0.00000000  0.00000000
   0.50000000  0.50000000  0.50000000
   0.00000000  0.00000000  0.50000000
   0.50000000  0.00000000  0.00000000
   0.00000000  0.50000000  0.00000000
 
 position of ions in cartesian coordinates  (Angst):
   2.82549969  0.00000000  2.82549969
   0.00000000  2.82549969  2.82549969
   2.82549969  2.82549969  0.00000000
   0.00000000  0.00000000  0.00000000
   2.82549969  2.82549969  2.82549969
   0.00000000  0.00000000  2.82549969
   2.82549969  0.00000000  0.00000000
   0.00000000  2.82549969  0.00000000
 


--------------------------------------------------------------------------------------------------------


 k-point  1 :   0.0625 0.0625 0.0625  plane waves:    4590
 k-point  2 :   0.1875 0.0625 0.0625  plane waves:    4591
 k-point  3 :   0.3125 0.0625 0.0625  plane waves:    4599
 k-point  4 :   0.4375 0.0625 0.0625  plane waves:    4578
 k-point  5 :  -0.4375 0.0625 0.0625  plane waves:    4578
 k-point  6 :  -0.3125 0.0625 0.0625  plane waves:    4599
 k-point  7 :  -0.1875 0.0625 0.0625  plane waves:    4591
 k-point  8 :  -0.0625 0.0625 0.0625  plane waves:    4590
 k-point  9 :   0.0625 0.1875 0.0625  plane waves:    4591
 k-point 10 :   0.1875 0.1875 0.0625  plane waves:    4592
 k-point 11 :   0.3125 0.1875 0.0625  plane waves:    4588
 k-point 12 :   0.4375 0.1875 0.0625  plane waves:    4582
 k-point 13 :  -0.4375 0.1875 0.0625  plane waves:    4582
 k-point 14 :  -0.3125 0.1875 0.0625  plane waves:    4588
 k-point 15 :  -0.1875 0.1875 0.0625  plane waves:    4592
 k-point 16 :  -0.0625 0.1875 0.0625  plane waves:    4591
 k-point 17 :   0.0625 0.3125 0.0625  plane waves:    4599
 k-point 18 :   0.1875 0.3125 0.0625  plane waves:    4588
 k-point 19 :   0.3125 0.3125 0.0625  plane waves:    4578
 k-point 20 :   0.4375 0.3125 0.0625  plane waves:    4567
 k-point 21 :  -0.4375 0.3125 0.0625  plane waves:    4567
 k-point 22 :  -0.3125 0.3125 0.0625  plane waves:    4578
 k-point 23 :  -0.1875 0.3125 0.0625  plane waves:    4588
 k-point 24 :  -0.0625 0.3125 0.0625  plane waves:    4599
 k-point 25 :   0.0625 0.4375 0.0625  plane waves:    4578
 k-point 26 :   0.1875 0.4375 0.0625  plane waves:    4582
 k-point 27 :   0.3125 0.4375 0.0625  plane waves:    4567
 k-point 28 :   0.4375 0.4375 0.0625  plane waves:    4576
 k-point 29 :  -0.4375 0.4375 0.0625  plane waves:    4576
 k-point 30 :  -0.3125 0.4375 0.0625  plane waves:    4567
 k-point 31 :  -0.1875 0.4375 0.0625  plane waves:    4582
 k-point 32 :  -0.0625 0.4375 0.0625  plane waves:    4578
 k-point 33 :   0.0625-0.4375 0.0625  plane waves:    4578
 k-point 34 :   0.1875-0.4375 0.0625  plane waves:    4582
 k-point 35 :   0.3125-0.4375 0.0625  plane waves:    4567
 k-point 36 :   0.4375-0.4375 0.0625  plane waves:    4576
 k-point 37 :  -0.4375-0.4375 0.0625  plane waves:    4576
 k-point 38 :  -0.3125-0.4375 0.0625  plane waves:    4567
 k-point 39 :  -0.1875-0.4375 0.0625  plane waves:    4582
 k-point 40 :  -0.0625-0.4375 0.0625  plane waves:    4578
 k-point 41 :   0.0625-0.3125 0.0625  plane waves:    4599
 k-point 42 :   0.1875-0.3125 0.0625  plane waves:    4588
 k-point 43 :   0.3125-0.3125 0.0625  plane waves:    4578
 k-point 44 :   0.4375-0.3125 0.0625  plane waves:    4567
 k-point 45 :  -0.4375-0.3125 0.0625  plane waves:    4567
 k-point 46 :  -0.3125-0.3125 0.0625  plane waves:    4578
 k-point 47 :  -0.1875-0.3125 0.0625  plane waves:    4588
 k-point 48 :  -0.0625-0.3125 0.0625  plane waves:    4599
 k-point 49 :   0.0625-0.1875 0.0625  plane waves:    4591
 k-point 50 :   0.1875-0.1875 0.0625  plane waves:    4592
 k-point 51 :   0.3125-0.1875 0.0625  plane waves:    4588
 k-point 52 :   0.4375-0.1875 0.0625  plane waves:    4582
 k-point 53 :  -0.4375-0.1875 0.0625  plane waves:    4582
 k-point 54 :  -0.3125-0.1875 0.0625  plane waves:    4588
 k-point 55 :  -0.1875-0.1875 0.0625  plane waves:    4592
 k-point 56 :  -0.0625-0.1875 0.0625  plane waves:    4591
 k-point 57 :   0.0625-0.0625 0.0625  plane waves:    4590
 k-point 58 :   0.1875-0.0625 0.0625  plane waves:    4591
 k-point 59 :   0.3125-0.0625 0.0625  plane waves:    4599
 k-point 60 :   0.4375-0.0625 0.0625  plane waves:    4578
 k-point 61 :  -0.4375-0.0625 0.0625  plane waves:    4578
 k-point 62 :  -0.3125-0.0625 0.0625  plane waves:    4599
 k-point 63 :  -0.1875-0.0625 0.0625  plane waves:    4591
 k-point 64 :  -0.0625-0.0625 0.0625  plane waves:    4590
 k-point 65 :   0.0625 0.0625 0.1875  plane waves:    4591
 k-point 66 :   0.1875 0.0625 0.1875  plane waves:    4592
 k-point 67 :   0.3125 0.0625 0.1875  plane waves:    4588
 k-point 68 :   0.4375 0.0625 0.1875  plane waves:    4582
 k-point 69 :  -0.4375 0.0625 0.1875  plane waves:    4582
 k-point 70 :  -0.3125 0.0625 0.1875  plane waves:    4588
 k-point 71 :  -0.1875 0.0625 0.1875  plane waves:    4592
 k-point 72 :  -0.0625 0.0625 0.1875  plane waves:    4591
 k-point 73 :   0.0625 0.1875 0.1875  plane waves:    4592
 k-point 74 :   0.1875 0.1875 0.1875  plane waves:    4596
 k-point 75 :   0.3125 0.1875 0.1875  plane waves:    4563
 k-point 76 :   0.4375 0.1875 0.1875  plane waves:    4574
 k-point 77 :  -0.4375 0.1875 0.1875  plane waves:    4574
 k-point 78 :  -0.3125 0.1875 0.1875  plane waves:    4563
 k-point 79 :  -0.1875 0.1875 0.1875  plane waves:    4596
 k-point 80 :  -0.0625 0.1875 0.1875  plane waves:    4592
 k-point 81 :   0.0625 0.3125 0.1875  plane waves:    4588
 k-point 82 :   0.1875 0.3125 0.1875  plane waves:    4563
 k-point 83 :   0.3125 0.3125 0.1875  plane waves:    4576
 k-point 84 :   0.4375 0.3125 0.1875  plane waves:    4574
 k-point 85 :  -0.4375 0.3125 0.1875  plane waves:    4574
 k-point 86 :  -0.3125 0.3125 0.1875  plane waves:    4576
 k-point 87 :  -0.1875 0.3125 0.1875  plane waves:    4563
 k-point 88 :  -0.0625 0.3125 0.1875  plane waves:    4588
 k-point 89 :   0.0625 0.4375 0.1875  plane waves:    4582
 k-point 90 :   0.1875 0.4375 0.1875  plane waves:    4574
 k-point 91 :   0.3125 0.4375 0.1875  plane waves:    4574
 k-point 92 :   0.4375 0.4375 0.1875  plane waves:    4572
 k-point 93 :  -0.4375 0.4375 0.1875  plane waves:    4572
 k-point 94 :  -0.3125 0.4375 0.1875  plane waves:    4574
 k-point 95 :  -0.1875 0.4375 0.1875  plane waves:    4574
 k-point 96 :  -0.0625 0.4375 0.1875  plane waves:    4582
 k-point 97 :   0.0625-0.4375 0.1875  plane waves:    4582
 k-point 98 :   0.1875-0.4375 0.1875  plane waves:    4574
 k-point 99 :   0.3125-0.4375 0.1875  plane waves:    4574
 k-point ** :   0.4375-0.4375 0.1875  plane waves:    4572
 k-point ** :  -0.4375-0.4375 0.1875  plane waves:    4572
 k-point ** :  -0.3125-0.4375 0.1875  plane waves:    4574
 k-point ** :  -0.1875-0.4375 0.1875  plane waves:    4574
 k-point ** :  -0.0625-0.4375 0.1875  plane waves:    4582
 k-point ** :   0.0625-0.3125 0.1875  plane waves:    4588
 k-point ** :   0.1875-0.3125 0.1875  plane waves:    4563
 k-point ** :   0.3125-0.3125 0.1875  plane waves:    4576
 k-point ** :   0.4375-0.3125 0.1875  plane waves:    4574
 k-point ** :  -0.4375-0.3125 0.1875  plane waves:    4574
 k-point ** :  -0.3125-0.3125 0.1875  plane waves:    4576
 k-point ** :  -0.1875-0.3125 0.1875  plane waves:    4563
 k-point ** :  -0.0625-0.3125 0.1875  plane waves:    4588
 k-point ** :   0.0625-0.1875 0.1875  plane waves:    4592
 k-point ** :   0.1875-0.1875 0.1875  plane waves:    4596
 k-point ** :   0.3125-0.1875 0.1875  plane waves:    4563
 k-point ** :   0.4375-0.1875 0.1875  plane waves:    4574
 k-point ** :  -0.4375-0.1875 0.1875  plane waves:    4574
 k-point ** :  -0.3125-0.1875 0.1875  plane waves:    4563
 k-point ** :  -0.1875-0.1875 0.1875  plane waves:    4596
 k-point ** :  -0.0625-0.1875 0.1875  plane waves:    4592
 k-point ** :   0.0625-0.0625 0.1875  plane waves:    4591
 k-point ** :   0.1875-0.0625 0.1875  plane waves:    4592
 k-point ** :   0.3125-0.0625 0.1875  plane waves:    4588
 k-point ** :   0.4375-0.0625 0.1875  plane waves:    4582
 k-point ** :  -0.4375-0.0625 0.1875  plane waves:    4582
 k-point ** :  -0.3125-0.0625 0.1875  plane waves:    4588
 k-point ** :  -0.1875-0.0625 0.1875  plane waves:    4592
 k-point ** :  -0.0625-0.0625 0.1875  plane waves:    4591
 k-point ** :   0.0625 0.0625 0.3125  plane waves:    4599
 k-point ** :   0.1875 0.0625 0.3125  plane waves:    4588
 k-point ** :   0.3125 0.0625 0.3125  plane waves:    4578
 k-point ** :   0.4375 0.0625 0.3125  plane waves:    4567
 k-point ** :  -0.4375 0.0625 0.3125  plane waves:    4567
 k-point ** :  -0.3125 0.0625 0.3125  plane waves:    4578
 k-point ** :  -0.1875 0.0625 0.3125  plane waves:    4588
 k-point ** :  -0.0625 0.0625 0.3125  plane waves:    4599
 k-point ** :   0.0625 0.1875 0.3125  plane waves:    4588
 k-point ** :   0.1875 0.1875 0.3125  plane waves:    4563
 k-point ** :   0.3125 0.1875 0.3125  plane waves:    4576
 k-point ** :   0.4375 0.1875 0.3125  plane waves:    4574
 k-point ** :  -0.4375 0.1875 0.3125  plane waves:    4574
 k-point ** :  -0.3125 0.1875 0.3125  plane waves:    4576
 k-point ** :  -0.1875 0.1875 0.3125  plane waves:    4563
 k-point ** :  -0.0625 0.1875 0.3125  plane waves:    4588
 k-point ** :   0.0625 0.3125 0.3125  plane waves:    4578
 k-point ** :   0.1875 0.3125 0.3125  plane waves:    4576
 k-point ** :   0.3125 0.3125 0.3125  plane waves:    4572
 k-point ** :   0.4375 0.3125 0.3125  plane waves:    4579
 k-point ** :  -0.4375 0.3125 0.3125  plane waves:    4579
 k-point ** :  -0.3125 0.3125 0.3125  plane waves:    4572
 k-point ** :  -0.1875 0.3125 0.3125  plane waves:    4576
 k-point ** :  -0.0625 0.3125 0.3125  plane waves:    4578
 k-point ** :   0.0625 0.4375 0.3125  plane waves:    4567
 k-point ** :   0.1875 0.4375 0.3125  plane waves:    4574
 k-point ** :   0.3125 0.4375 0.3125  plane waves:    4579
 k-point ** :   0.4375 0.4375 0.3125  plane waves:    4591
 k-point ** :  -0.4375 0.4375 0.3125  plane waves:    4591
 k-point ** :  -0.3125 0.4375 0.3125  plane waves:    4579
 k-point ** :  -0.1875 0.4375 0.3125  plane waves:    4574
 k-point ** :  -0.0625 0.4375 0.3125  plane waves:    4567
 k-point ** :   0.0625-0.4375 0.3125  plane waves:    4567
 k-point ** :   0.1875-0.4375 0.3125  plane waves:    4574
 k-point ** :   0.3125-0.4375 0.3125  plane waves:    4579
 k-point ** :   0.4375-0.4375 0.3125  plane waves:    4591
 k-point ** :  -0.4375-0.4375 0.3125  plane waves:    4591
 k-point ** :  -0.3125-0.4375 0.3125  plane waves:    4579
 k-point ** :  -0.1875-0.4375 0.3125  plane waves:    4574
 k-point ** :  -0.0625-0.4375 0.3125  plane waves:    4567
 k-point ** :   0.0625-0.3125 0.3125  plane waves:    4578
 k-point ** :   0.1875-0.3125 0.3125  plane waves:    4576
 k-point ** :   0.3125-0.3125 0.3125  plane waves:    4572
 k-point ** :   0.4375-0.3125 0.3125  plane waves:    4579
 k-point ** :  -0.4375-0.3125 0.3125  plane waves:    4579
 k-point ** :  -0.3125-0.3125 0.3125  plane waves:    4572
 k-point ** :  -0.1875-0.3125 0.3125  plane waves:    4576
 k-point ** :  -0.0625-0.3125 0.3125  plane waves:    4578
 k-point ** :   0.0625-0.1875 0.3125  plane waves:    4588
 k-point ** :   0.1875-0.1875 0.3125  plane waves:    4563
 k-point ** :   0.3125-0.1875 0.3125  plane waves:    4576
 k-point ** :   0.4375-0.1875 0.3125  plane waves:    4574
 k-point ** :  -0.4375-0.1875 0.3125  plane waves:    4574
 k-point ** :  -0.3125-0.1875 0.3125  plane waves:    4576
 k-point ** :  -0.1875-0.1875 0.3125  plane waves:    4563
 k-point ** :  -0.0625-0.1875 0.3125  plane waves:    4588
 k-point ** :   0.0625-0.0625 0.3125  plane waves:    4599
 k-point ** :   0.1875-0.0625 0.3125  plane waves:    4588
 k-point ** :   0.3125-0.0625 0.3125  plane waves:    4578
 k-point ** :   0.4375-0.0625 0.3125  plane waves:    4567
 k-point ** :  -0.4375-0.0625 0.3125  plane waves:    4567
 k-point ** :  -0.3125-0.0625 0.3125  plane waves:    4578
 k-point ** :  -0.1875-0.0625 0.3125  plane waves:    4588
 k-point ** :  -0.0625-0.0625 0.3125  plane waves:    4599
 k-point ** :   0.0625 0.0625 0.4375  plane waves:    4578
 k-point ** :   0.1875 0.0625 0.4375  plane waves:    4582
 k-point ** :   0.3125 0.0625 0.4375  plane waves:    4567
 k-point ** :   0.4375 0.0625 0.4375  plane waves:    4576
 k-point ** :  -0.4375 0.0625 0.4375  plane waves:    4576
 k-point ** :  -0.3125 0.0625 0.4375  plane waves:    4567
 k-point ** :  -0.1875 0.0625 0.4375  plane waves:    4582
 k-point ** :  -0.0625 0.0625 0.4375  plane waves:    4578
 k-point ** :   0.0625 0.1875 0.4375  plane waves:    4582
 k-point ** :   0.1875 0.1875 0.4375  plane waves:    4574
 k-point ** :   0.3125 0.1875 0.4375  plane waves:    4574
 k-point ** :   0.4375 0.1875 0.4375  plane waves:    4572
 k-point ** :  -0.4375 0.1875 0.4375  plane waves:    4572
 k-point ** :  -0.3125 0.1875 0.4375  plane waves:    4574
 k-point ** :  -0.1875 0.1875 0.4375  plane waves:    4574
 k-point ** :  -0.0625 0.1875 0.4375  plane waves:    4582
 k-point ** :   0.0625 0.3125 0.4375  plane waves:    4567
 k-point ** :   0.1875 0.3125 0.4375  plane waves:    4574
 k-point ** :   0.3125 0.3125 0.4375  plane waves:    4579
 k-point ** :   0.4375 0.3125 0.4375  plane waves:    4591
 k-point ** :  -0.4375 0.3125 0.4375  plane waves:    4591
 k-point ** :  -0.3125 0.3125 0.4375  plane waves:    4579
 k-point ** :  -0.1875 0.3125 0.4375  plane waves:    4574
 k-point ** :  -0.0625 0.3125 0.4375  plane waves:    4567
 k-point ** :   0.0625 0.4375 0.4375  plane waves:    4576
 k-point ** :   0.1875 0.4375 0.4375  plane waves:    4572
 k-point ** :   0.3125 0.4375 0.4375  plane waves:    4591
 k-point ** :   0.4375 0.4375 0.4375  plane waves:    4605
 k-point ** :  -0.4375 0.4375 0.4375  plane waves:    4605
 k-point ** :  -0.3125 0.4375 0.4375  plane waves:    4591
 k-point ** :  -0.1875 0.4375 0.4375  plane waves:    4572
 k-point ** :  -0.0625 0.4375 0.4375  plane waves:    4576
 k-point ** :   0.0625-0.4375 0.4375  plane waves:    4576
 k-point ** :   0.1875-0.4375 0.4375  plane waves:    4572
 k-point ** :   0.3125-0.4375 0.4375  plane waves:    4591
 k-point ** :   0.4375-0.4375 0.4375  plane waves:    4605
 k-point ** :  -0.4375-0.4375 0.4375  plane waves:    4605
 k-point ** :  -0.3125-0.4375 0.4375  plane waves:    4591
 k-point ** :  -0.1875-0.4375 0.4375  plane waves:    4572
 k-point ** :  -0.0625-0.4375 0.4375  plane waves:    4576
 k-point ** :   0.0625-0.3125 0.4375  plane waves:    4567
 k-point ** :   0.1875-0.3125 0.4375  plane waves:    4574
 k-point ** :   0.3125-0.3125 0.4375  plane waves:    4579
 k-point ** :   0.4375-0.3125 0.4375  plane waves:    4591
 k-point ** :  -0.4375-0.3125 0.4375  plane waves:    4591
 k-point ** :  -0.3125-0.3125 0.4375  plane waves:    4579
 k-point ** :  -0.1875-0.3125 0.4375  plane waves:    4574
 k-point ** :  -0.0625-0.3125 0.4375  plane waves:    4567
 k-point ** :   0.0625-0.1875 0.4375  plane waves:    4582
 k-point ** :   0.1875-0.1875 0.4375  plane waves:    4574
 k-point ** :   0.3125-0.1875 0.4375  plane waves:    4574
 k-point ** :   0.4375-0.1875 0.4375  plane waves:    4572
 k-point ** :  -0.4375-0.1875 0.4375  plane waves:    4572
 k-point ** :  -0.3125-0.1875 0.4375  plane waves:    4574
 k-point ** :  -0.1875-0.1875 0.4375  plane waves:    4574
 k-point ** :  -0.0625-0.1875 0.4375  plane waves:    4582
 k-point ** :   0.0625-0.0625 0.4375  plane waves:    4578
 k-point ** :   0.1875-0.0625 0.4375  plane waves:    4582
 k-point ** :   0.3125-0.0625 0.4375  plane waves:    4567
 k-point ** :   0.4375-0.0625 0.4375  plane waves:    4576
 k-point ** :  -0.4375-0.0625 0.4375  plane waves:    4576
 k-point ** :  -0.3125-0.0625 0.4375  plane waves:    4567
 k-point ** :  -0.1875-0.0625 0.4375  plane waves:    4582
 k-point ** :  -0.0625-0.0625 0.4375  plane waves:    4578

 maximum and minimum number of plane-waves per node :      4605     4563

 maximum number of plane-waves:      4605
 maximum index in each direction: 
   IXMAX=   10   IYMAX=   10   IZMAX=   10
   IXMIN=  -10   IYMIN=  -10   IZMIN=  -10


 serial   3D FFT for wavefunctions
 parallel 3D FFT for charge:
    minimum data exchange during FFTs selected (reduces bandwidth)


[...]
      9      -1.3798      2.00000
     10      -1.3009      2.00000
     11      -1.0416      2.00000
     12      -0.9516      2.00000
     13      -0.9457      2.00000
     14      -0.8937      2.00000
     15      -0.8676      2.00000
     16      -0.7594      2.00000
     17       6.6451      0.00000
     18       7.1246      0.00000
     19       7.7071      0.00000
     20       7.7734      0.00000
     21       8.9332      0.00000
     22       9.0048      0.00000
     23       9.0665      0.00000
     24       9.2355      0.00000

 k-point   244 :       0.4375   -0.1875    0.4375
  band No.  band energies     occupation 
      1     -12.9415      2.00000
      2     -12.9023      2.00000
      3     -12.9023      2.00000
      4     -12.8777      2.00000
      5      -2.2154      2.00000
      6      -2.1837      2.00000
      7      -2.1837      2.00000
      8      -2.1094      2.00000
      9      -1.2613      2.00000
     10      -1.1426      2.00000
     11      -1.1426      2.00000
     12      -1.0063      2.00000
     13      -0.8695      2.00000
     14      -0.8440      2.00000
     15      -0.8440      2.00000
     16      -0.7707      2.00000
     17       6.9245      0.00000
     18       7.2891      0.00000
     19       7.2891      0.00000
     20       7.5035      0.00000
     21       9.2579      0.00000
     22       9.3323      0.00000
     23       9.3390      0.00000
     24       9.3639      0.00000

 k-point   245 :      -0.4375   -0.1875    0.4375
  band No.  band energies     occupation 
      1     -12.9415      2.00000
      2     -12.9023      2.00000
      3     -12.9023      2.00000
      4     -12.8777      2.00000
      5      -2.2154      2.00000
      6      -2.1837      2.00000
      7      -2.1837      2.00000
      8      -2.1094      2.00000
      9      -1.2613      2.00000
     10      -1.1426      2.00000
     11      -1.1426      2.00000
     12      -1.0063      2.00000
     13      -0.8695      2.00000
     14      -0.8440      2.00000
     15      -0.8440      2.00000
     16      -0.7707      2.00000
     17       6.9245      0.00000
     18       7.2891      0.00000
     19       7.2891      0.00000
     20       7.5036      0.00000
     21       9.2524      0.00000
     22       9.3338      0.00000
     23       9.3413      0.00000
     24       9.3610      0.00000

 k-point   246 :      -0.3125   -0.1875    0.4375
  band No.  band energies     occupation 
      1     -12.9794      2.00000
      2     -12.9270      2.00000
      3     -12.8679      2.00000
      4     -12.8571      2.00000
      5      -2.1716      2.00000
      6      -2.1690      2.00000
      7      -2.0853      2.00000
      8      -1.9605      2.00000
      9      -1.3798      2.00000
     10      -1.3009      2.00000
     11      -1.0416      2.00000
     12      -0.9516      2.00000
     13      -0.9457      2.00000
     14      -0.8937      2.00000
     15      -0.8676      2.00000
     16      -0.7594      2.00000
     17       6.6451      0.00000
     18       7.1247      0.00000
     19       7.7071      0.00000
     20       7.7733      0.00000
     21       8.9275      0.00000
     22       8.9963      0.00000
     23       9.0739      0.00000
     24       9.2400      0.00000

 k-point   247 :      -0.1875   -0.1875    0.4375
  band No.  band energies     occupation 
      1     -13.0095      2.00000
      2     -12.9473      2.00000
      3     -12.8428      2.00000
      4     -12.8428      2.00000
      5      -2.0689      2.00000
      6      -2.0689      2.00000
      7      -1.9537      2.00000
      8      -1.7744      2.00000
      9      -1.4868      2.00000
     10      -1.4868      2.00000
     11      -1.0509      2.00000
     12      -1.0509      2.00000
     13      -0.9898      2.00000
     14      -0.9070      2.00000
     15      -0.8147      2.00000
     16      -0.8098      2.00000
     17       6.4634      0.00000
     18       7.0184      0.00000
     19       8.0928      0.00000
     20       8.0929      0.00000
     21       8.6737      0.00000
     22       8.6773      0.00000
     23       8.7462      0.00000
     24       9.0988      0.00000

 k-point   248 :      -0.0625   -0.1875    0.4375
  band No.  band energies     occupation 
      1     -13.0262      2.00000
      2     -12.9587      2.00000
      3     -12.8356      2.00000
      4     -12.8297      2.00000
      5      -1.9619      2.00000
      6      -1.9025      2.00000
      7      -1.8515      2.00000
      8      -1.6944      2.00000
      9      -1.6257      2.00000
     10      -1.5694      2.00000
     11      -1.1328      2.00000
     12      -1.1073      2.00000
     13      -1.0181      2.00000
     14      -0.8996      2.00000
     15      -0.8859      2.00000
     16      -0.7693      2.00000
     17       6.3771      0.00000
     18       6.9728      0.00000
     19       8.2282      0.00000
     20       8.3083      0.00000
     21       8.5891      0.00000
     22       8.6529      0.00000
     23       8.7155      0.00000
     24       9.0043      0.00000

 k-point   249 :       0.0625   -0.0625    0.4375
  band No.  band energies     occupation 
      1     -13.0447      2.00000
      2     -12.9721      2.00000
      3     -12.8201      2.00000
      4     -12.8201      2.00000
      5      -1.8644      2.00000
      6      -1.8644      2.00000
      7      -1.7780      2.00000
      8      -1.6566      2.00000
      9      -1.6566      2.00000
     10      -1.4948      2.00000
     11      -1.2483      2.00000
     12      -1.2483      2.00000
     13      -0.9476      2.00000
     14      -0.9314      2.00000
     15      -0.8200      2.00000
     16      -0.8175      2.00000
     17       6.2002      0.00000
     18       6.7980      0.00000
     19       8.1797      0.00000
     20       8.1821      0.00000
     21       8.4275      0.00000
     22       8.7853      0.00000
     23       8.7978      0.00000
     24       8.9652      0.00000

 k-point   250 :       0.1875   -0.0625    0.4375
  band No.  band energies     occupation 
      1     -13.0262      2.00000
      2     -12.9587      2.00000
      3     -12.8356      2.00000
      4     -12.8297      2.00000
      5      -1.9619      2.00000
      6      -1.9025      2.00000
      7      -1.8515      2.00000
      8      -1.6944      2.00000
      9      -1.6257      2.00000
     10      -1.5694      2.00000
     11      -1.1328      2.00000
     12      -1.1073      2.00000
     13      -1.0181      2.00000
     14      -0.8996      2.00000
     15      -0.8859      2.00000
     16      -0.7693      2.00000
     17       6.3771      0.00000
     18       6.9729      0.00000
     19       8.2340      0.00000
     20       8.3060      0.00000
     21       8.6532      0.00000
     22       8.6938      0.00000
     23       8.7271      0.00000
     24       9.0649      0.00000

 k-point   251 :       0.3125   -0.0625    0.4375
  band No.  band energies     occupation 
      1     -12.9924      2.00000
      2     -12.9346      2.00000
      3     -12.8649      2.00000
      4     -12.8483      2.00000
      5      -2.0296      2.00000
      6      -1.9933      2.00000
      7      -1.9512      2.00000
      8      -1.7983      2.00000
      9      -1.6167      2.00000
     10      -1.4541      2.00000
     11      -1.1497      2.00000
     12      -1.0060      2.00000
     13      -0.9792      2.00000
     14      -0.9683      2.00000
     15      -0.8600      2.00000
     16      -0.7386      2.00000
     17       6.7003      0.00000
     18       7.2702      0.00000
     19       8.0844      0.00000
     20       8.1182      0.00000
     21       8.7679      0.00000
     22       8.8068      0.00000
     23       8.8629      0.00000
     24       9.0602      0.00000

 k-point   252 :       0.4375   -0.0625    0.4375
  band No.  band energies     occupation 
      1     -12.9495      2.00000
      2     -12.9047      2.00000
      3     -12.9047      2.00000
      4     -12.8743      2.00000
      5      -2.0438      2.00000
      6      -2.0264      2.00000
      7      -2.0264      2.00000
      8      -1.9444      2.00000
      9      -1.4776      2.00000
     10      -1.3127      2.00000
     11      -1.3127      2.00000
     12      -1.1565      2.00000
     13      -0.8787      2.00000
     14      -0.8461      2.00000
     15      -0.8461      2.00000
     16      -0.7623      2.00000
     17       7.1228      0.00000
     18       7.6005      0.00000
     19       7.6005      0.00000
     20       7.8872      0.00000
     21       9.0652      0.00000
     22       9.0858      0.00000
     23       9.0992      0.00000
     24       9.1375      0.00000

 k-point   253 :      -0.4375   -0.0625    0.4375
  band No.  band energies     occupation 
      1     -12.9495      2.00000
      2     -12.9047      2.00000
      3     -12.9047      2.00000
      4     -12.8743      2.00000
      5      -2.0438      2.00000
      6      -2.0264      2.00000
      7      -2.0264      2.00000
      8      -1.9444      2.00000
      9      -1.4776      2.00000
     10      -1.3127      2.00000
     11      -1.3127      2.00000
     12      -1.1565      2.00000
     13      -0.8787      2.00000
     14      -0.8461      2.00000
     15      -0.8461      2.00000
     16      -0.7623      2.00000
     17       7.1228      0.00000
     18       7.6005      0.00000
     19       7.6006      0.00000
     20       7.8877      0.00000
     21       9.0776      0.00000
     22       9.0845      0.00000
     23       9.0991      0.00000
     24       9.1435      0.00000

 k-point   254 :      -0.3125   -0.0625    0.4375
  band No.  band energies     occupation 
      1     -12.9924      2.00000
      2     -12.9346      2.00000
      3     -12.8649      2.00000
      4     -12.8483      2.00000
      5      -2.0296      2.00000
      6      -1.9933      2.00000
      7      -1.9512      2.00000
      8      -1.7983      2.00000
      9      -1.6167      2.00000
     10      -1.4541      2.00000
     11      -1.1497      2.00000
     12      -1.0060      2.00000
     13      -0.9792      2.00000
     14      -0.9683      2.00000
     15      -0.8600      2.00000
     16      -0.7386      2.00000
     17       6.7003      0.00000
     18       7.2702      0.00000
     19       8.0845      0.00000
     20       8.1168      0.00000
     21       8.7675      0.00000
     22       8.8139      0.00000
     23       8.8692      0.00000
     24       9.0689      0.00000

 k-point   255 :      -0.1875   -0.0625    0.4375
  band No.  band energies     occupation 
      1     -13.0262      2.00000
      2     -12.9587      2.00000
      3     -12.8356      2.00000
      4     -12.8297      2.00000
      5      -1.9619      2.00000
      6      -1.9025      2.00000
      7      -1.8515      2.00000
      8      -1.6944      2.00000
      9      -1.6257      2.00000
     10      -1.5694      2.00000
     11      -1.1328      2.00000
     12      -1.1073      2.00000
     13      -1.0181      2.00000
     14      -0.8996      2.00000
     15      -0.8859      2.00000
     16      -0.7693      2.00000
     17       6.3771      0.00000
     18       6.9728      0.00000
     19       8.2279      0.00000
     20       8.3068      0.00000
     21       8.5376      0.00000
     22       8.6536      0.00000
     23       8.7143      0.00000
     24       9.0549      0.00000

 k-point   256 :      -0.0625   -0.0625    0.4375
  band No.  band energies     occupation 
      1     -13.0447      2.00000
      2     -12.9721      2.00000
      3     -12.8201      2.00000
      4     -12.8201      2.00000
      5      -1.8644      2.00000
      6      -1.8644      2.00000
      7      -1.7780      2.00000
      8      -1.6566      2.00000
      9      -1.6566      2.00000
     10      -1.4948      2.00000
     11      -1.2483      2.00000
     12      -1.2483      2.00000
     13      -0.9476      2.00000
     14      -0.9314      2.00000
     15      -0.8200      2.00000
     16      -0.8175      2.00000
     17       6.2002      0.00000
     18       6.7980      0.00000
     19       8.1796      0.00000
     20       8.1806      0.00000
     21       8.4297      0.00000
     22       8.7866      0.00000
     23       8.7957      0.00000
     24       8.9358      0.00000


--------------------------------------------------------------------------------------------------------


 soft charge-density along one line, spin component           1
         0         1         2         3         4         5         6         7         8         9
 total charge-density along one line
 
 pseudopotential strength for first ion, spin component:           1
  1.428   6.381  -0.000   0.000   0.000
  6.381  28.107  -0.000  -0.000   0.000
 -0.000  -0.000   5.461   0.000   0.000
  0.000  -0.000   0.000   5.461   0.000
  0.000   0.000   0.000   0.000   5.461
 total augmentation occupancy for first ion, spin component:           1
  0.359   0.002  -0.000   0.000  -0.000
  0.002   0.000   0.000  -0.000   0.000
 -0.000   0.000   0.017   0.000  -0.000
  0.000  -0.000   0.000   0.017  -0.000
 -0.000   0.000  -0.000  -0.000   0.017


------------------------ aborting loop because EDIFF is reached ----------------------------------------


    CHARGE:  cpu time    0.5771: real time    0.5774
    FORLOC:  cpu time    0.0015: real time    0.0015
    FORNL :  cpu time    0.6578: real time    0.6583
    STRESS:  cpu time    4.4810: real time    4.4839
    FORCOR:  cpu time    0.0166: real time    0.0166
    FORHAR:  cpu time    0.0043: real time    0.0043
    MIXING:  cpu time    0.0005: real time    0.0005
    OFIELD:  cpu time    0.0001: real time    0.0001

  FORCE on cell =-STRESS in cart. coord.  units (eV):
  Direction    XX          YY          ZZ          XY          YZ          ZX
  --------------------------------------------------------------------------------------
  Alpha Z     8.40909     8.40909     8.40909
  Ewald    -415.35328  -415.35328  -415.35328    -0.00000    -0.00000    -0.00000
  Hartree   133.30188   133.30188   133.30188    -0.00000     0.00000     0.00000
  E(xc)    -114.41366  -114.41366  -114.41366     0.00000    -0.00000     0.00000
  Local    -348.39922  -348.39922  -348.39922     0.00000    -0.00000     0.00000
  n-local   337.52652   337.52652   337.52652    -0.00000     0.00000    -0.00000
  augment   -77.35988   -77.35988   -77.35988    -0.00000     0.00000     0.00000
  Kinetic   476.28853   476.28853   476.28853     0.00000    -0.00000     0.00000
  Fock        0.00000     0.00000     0.00000     0.00000     0.00000     0.00000
  -------------------------------------------------------------------------------------
  Total      -0.00002    -0.00002    -0.00002     0.00000    -0.00000     0.00000
  in kB      -0.00020    -0.00019    -0.00019     0.00000    -0.00000     0.00000
  external pressure =       -0.00 kB  Pullay stress =        0.00 kB


 VOLUME and BASIS-vectors are now :
 -----------------------------------------------------------------------------
  energy-cutoff  :      500.00
  volume of cell :      180.46
      direct lattice vectors                 reciprocal lattice vectors
     5.650999387  0.000000000  0.000000000     0.176959849  0.000000000  0.000000000
     0.000000000  5.650999387  0.000000000     0.000000000  0.176959849  0.000000000
     0.000000000  0.000000000  5.650999387     0.000000000  0.000000000  0.176959849

  length of vectors
     5.650999387  5.650999387  5.650999387     0.176959849  0.176959849  0.176959849


 FORCES acting on ions
    electron-ion (+dipol)            ewald-force                    non-local-force                 convergence-correction
 -----------------------------------------------------------------------------------------------
   0.255E-07 -.104E-07 -.355E-07   -.495E-15 0.429E-15 0.529E-15   -.104E-07 0.678E-08 0.135E-07   -.118E-07 0.432E-08 0.173E-07
   -.218E-07 0.156E-07 -.430E-07   -.775E-15 0.716E-15 0.530E-15   0.801E-08 -.793E-08 0.183E-07   0.115E-07 -.625E-08 0.189E-07
   0.172E-07 0.327E-08 0.241E-07   -.516E-15 0.653E-15 0.212E-15   -.439E-08 0.105E-08 -.895E-08   -.111E-07 -.457E-08 -.164E-07
   -.202E-07 -.117E-07 0.373E-07   -.797E-15 0.327E-15 0.212E-15   0.598E-08 0.466E-08 -.156E-07   0.118E-07 0.579E-08 -.188E-07
   0.696E-07 -.159E-06 0.382E-06   0.447E-14 0.113E-14 0.778E-15   0.163E-06 0.220E-06 -.366E-06   -.206E-06 -.299E-07 -.397E-07
   -.873E-07 0.523E-07 0.157E-06   0.369E-15 0.368E-15 0.749E-15   -.195E-06 -.222E-06 -.427E-06   0.231E-06 0.125E-06 0.199E-06
   0.108E-06 0.126E-06 0.245E-06   0.811E-15 -.368E-14 -.133E-14   0.129E-06 -.686E-07 0.213E-06   -.219E-06 -.565E-07 -.396E-06
   -.513E-07 0.312E-07 0.430E-06   -.329E-14 -.177E-15 -.136E-14   -.767E-07 0.107E-06 0.198E-06   0.129E-06 -.121E-06 -.543E-06
 -----------------------------------------------------------------------------------------------
   0.393E-07 0.471E-07 0.120E-05   -.222E-15 -.238E-15 0.323E-15   0.185E-07 0.410E-07 -.375E-06   -.640E-07 -.834E-07 -.779E-06
 
 
 POSITION                                       TOTAL-FORCE (eV/Angst)
 -----------------------------------------------------------------------------------
      2.82550      0.00000      2.82550         0.000000      0.000000     -0.000000
      0.00000      2.82550      2.82550        -0.000000      0.000000     -0.000000
      2.82550      2.82550      0.00000         0.000000     -0.000000     -0.000000
      0.00000      0.00000      0.00000        -0.000000     -0.000000     -0.000000
      2.82550      2.82550      2.82550         0.000000      0.000000     -0.000000
      0.00000      0.00000      2.82550        -0.000000     -0.000000     -0.000000
      2.82550      0.00000      0.00000         0.000000      0.000000      0.000000
      0.00000      2.82550      0.00000         0.000000      0.000000      0.000000
 -----------------------------------------------------------------------------------
    total drift:                               -0.000000      0.000000      0.000000


--------------------------------------------------------------------------------------------------------



  FREE ENERGIE OF THE ION-ELECTRON SYSTEM (eV)
  ---------------------------------------------------
  free  energy   TOTEN  =       -27.25886737 eV

  energy  without entropy=      -27.25886737  energy(sigma->0) =      -27.25886737
 


--------------------------------------------------------------------------------------------------------


    POTLOK:  cpu time    0.0192: real time    0.0192


--------------------------------------------------------------------------------------------------------


 writing wavefunctions
     LOOP+:  cpu time   45.2934: real time   83.0069
    4ORBIT:  cpu time    0.0000: real time    0.0000
 BZINTS: Fermi energy: -0.528133; 32.000000 electrons
         Band energy:-135.978108;  BLOECHL correction:  0.000000

 total amount of memory used by VASP MPI-rank0   206628. kBytes
=======================================================================

   base      :      30000. kBytes
   nonl-proj :     151584. kBytes
   fftplans  :       1252. kBytes
   grid      :       4599. kBytes
   one-center:         24. kBytes
   wavefun   :      19169. kBytes
 
  
  
 General timing and accounting informations for this job:
 ========================================================
  
                  Total CPU time used (sec):       49.413
                            User time (sec):       48.695
                          System time (sec):        0.717
                         Elapsed time (sec):       89.220
  
                   Maximum memory used (kb):      324836.
                   Average memory used (kb):           0.
  
                          Minor page faults:        35852
                          Major page faults:           45
                 Voluntary context switches:        12288
