<?xml version="1.0" encoding="ISO-8859-1"?>
<modeling>
 <generator>
  <i name="program" type="string">vasp </i>
  <i name="version" type="string">5.4.4.18Apr17-6-g9f103f2a35  </i>
  <i name="subversion" type="string">(build Mar 26 2019 17:47:52) complex            parallel </i>
  <i name="platform" type="string">LINUX </i>
  <i name="date" type="string">2021 04 29 </i>
  <i name="time" type="string">16:15:07 </i>
 </generator>
 <incar>
  <i type="string" name="SYSTEM">NaCl</i>
  <i type="string" name="PREC">accurate</i>
  <i name="EDIFF">      0.00000010</i>
  <i type="int" name="NSW">     0</i>
  <i type="int" name="ISYM">     0</i>
  <i name="ENCUT">    500.00000000</i>
  <i type="int" name="NBANDS">    24</i>
  <i type="int" name="ISMEAR">    -5</i>
  <i type="int" name="NWRITE">     0</i>
  <i type="logical" name="LWAVE"> T  </i>
  <i type="logical" name="LCHARG"> F  </i>
  <v type="int" name="KPOINT_BSE">    -1     0     0     0</v>
 </incar>
 <structure name="primitive_cell" >
  <crystal>
   <varray name="basis" >
    <v>       5.65099939       0.00000000       0.00000000 </v>
    <v>       0.00000000       5.65099939       0.00000000 </v>
    <v>       0.00000000       0.00000000       5.65099939 </v>
   </varray>
   <i name="volume">    180.45785069 </i>
   <varray name="rec_basis" >
    <v>       0.17695985       0.00000000       0.00000000 </v>
    <v>       0.00000000       0.17695985       0.00000000 </v>
    <v>       0.00000000       0.00000000       0.17695985 </v>
   </varray>
  </crystal>
  <varray name="positions" >
   <v>      -0.50000000       0.00000000      -0.50000000 </v>
   <v>      -0.50000000      -0.50000000      -0.50000000 </v>
   <v>       0.00000000       0.00000000      -0.50000000 </v>
   <v>      -0.50000000       0.00000000       0.00000000 </v>
   <v>       0.00000000      -0.50000000      -0.50000000 </v>
   <v>      -0.50000000      -0.50000000       0.00000000 </v>
   <v>       0.00000000       0.00000000       0.00000000 </v>
   <v>       0.00000000      -0.50000000       0.00000000 </v>
  </varray>
 </structure>
 <varray name="primitive_index" >
  <v type="int" >        1 </v>
  <v type="int" >        5 </v>
  <v type="int" >        6 </v>
  <v type="int" >        7 </v>
  <v type="int" >        2 </v>
  <v type="int" >        3 </v>
  <v type="int" >        4 </v>
  <v type="int" >        8 </v>
 </varray>
 <kpoints>
  <generation param="Monkhorst-Pack">
   <v type="int" name="divisions">       8        8        8 </v>
   <v name="usershift">      0.00000000       0.00000000       0.00000000 </v>
   <v name="genvec1">      0.12500000       0.00000000       0.00000000 </v>
   <v name="genvec2">      0.00000000       0.12500000       0.00000000 </v>
   <v name="genvec3">      0.00000000       0.00000000       0.12500000 </v>
   <v name="shift">      0.50000000       0.50000000       0.50000000 </v>
  </generation>
  <varray name="kpointlist" >
   <v>       0.06250000       0.06250000       0.06250000 </v>
   <v>       0.18750000       0.06250000       0.06250000 </v>
   <v>       0.31250000       0.06250000       0.06250000 </v>
   <v>       0.43750000       0.06250000       0.06250000 </v>
   <v>      -0.43750000       0.06250000       0.06250000 </v>
   <v>      -0.31250000       0.06250000       0.06250000 </v>
   <v>      -0.18750000       0.06250000       0.06250000 </v>
   <v>      -0.06250000       0.06250000       0.06250000 </v>
   <v>       0.06250000       0.18750000       0.06250000 </v>
   <v>       0.18750000       0.18750000       0.06250000 </v>
   <v>       0.31250000       0.18750000       0.06250000 </v>
   <v>       0.43750000       0.18750000       0.06250000 </v>
   <v>      -0.43750000       0.18750000       0.06250000 </v>
   <v>      -0.31250000       0.18750000       0.06250000 </v>
   <v>      -0.18750000       0.18750000       0.06250000 </v>
   <v>      -0.06250000       0.18750000       0.06250000 </v>
   <v>       0.06250000       0.31250000       0.06250000 </v>
   <v>       0.18750000       0.31250000       0.06250000 </v>
   <v>       0.31250000       0.31250000       0.06250000 </v>
   <v>       0.43750000       0.31250000       0.06250000 </v>
   <v>      -0.43750000       0.31250000       0.06250000 </v>
   <v>      -0.31250000       0.31250000       0.06250000 </v>
   <v>      -0.18750000       0.31250000       0.06250000 </v>
   <v>      -0.06250000       0.31250000       0.06250000 </v>
   <v>       0.06250000       0.43750000       0.06250000 </v>
   <v>       0.18750000       0.43750000       0.06250000 </v>
   <v>       0.31250000       0.43750000       0.06250000 </v>
   <v>       0.43750000       0.43750000       0.06250000 </v>
   <v>      -0.43750000       0.43750000       0.06250000 </v>
   <v>      -0.31250000       0.43750000       0.06250000 </v>
   <v>      -0.18750000       0.43750000       0.06250000 </v>
   <v>      -0.06250000       0.43750000       0.06250000 </v>
   <v>       0.06250000      -0.43750000       0.06250000 </v>
   <v>       0.18750000      -0.43750000       0.06250000 </v>
   <v>       0.31250000      -0.43750000       0.06250000 </v>
   <v>       0.43750000      -0.43750000       0.06250000 </v>
   <v>      -0.43750000      -0.43750000       0.06250000 </v>
   <v>      -0.31250000      -0.43750000       0.06250000 </v>
   <v>      -0.18750000      -0.43750000       0.06250000 </v>
   <v>      -0.06250000      -0.43750000       0.06250000 </v>
   <v>       0.06250000      -0.31250000       0.06250000 </v>
   <v>       0.18750000      -0.31250000       0.06250000 </v>
   <v>       0.31250000      -0.31250000       0.06250000 </v>
   <v>       0.43750000      -0.31250000       0.06250000 </v>
   <v>      -0.43750000      -0.31250000       0.06250000 </v>
   <v>      -0.31250000      -0.31250000       0.06250000 </v>
   <v>      -0.18750000      -0.31250000       0.06250000 </v>
   <v>      -0.06250000      -0.31250000       0.06250000 </v>
   <v>       0.06250000      -0.18750000       0.06250000 </v>
   <v>       0.18750000      -0.18750000       0.06250000 </v>
   <v>       0.31250000      -0.18750000       0.06250000 </v>
   <v>       0.43750000      -0.18750000       0.06250000 </v>
   <v>      -0.43750000      -0.18750000       0.06250000 </v>
   <v>      -0.31250000      -0.18750000       0.06250000 </v>
   <v>      -0.18750000      -0.18750000       0.06250000 </v>
   <v>      -0.06250000      -0.18750000       0.06250000 </v>
   <v>       0.06250000      -0.06250000       0.06250000 </v>
   <v>       0.18750000      -0.06250000       0.06250000 </v>
   <v>       0.31250000      -0.06250000       0.06250000 </v>
   <v>       0.43750000      -0.06250000       0.06250000 </v>
   <v>      -0.43750000      -0.06250000       0.06250000 </v>
   <v>      -0.31250000      -0.06250000       0.06250000 </v>
   <v>      -0.18750000      -0.06250000       0.06250000 </v>
   <v>      -0.06250000      -0.06250000       0.06250000 </v>
   <v>       0.06250000       0.06250000       0.18750000 </v>
   <v>       0.18750000       0.06250000       0.18750000 </v>
   <v>       0.31250000       0.06250000       0.18750000 </v>
   <v>       0.43750000       0.06250000       0.18750000 </v>
   <v>      -0.43750000       0.06250000       0.18750000 </v>
   <v>      -0.31250000       0.06250000       0.18750000 </v>
   <v>      -0.18750000       0.06250000       0.18750000 </v>
   <v>      -0.06250000       0.06250000       0.18750000 </v>
   <v>       0.06250000       0.18750000       0.18750000 </v>
   <v>       0.18750000       0.18750000       0.18750000 </v>
   <v>       0.31250000       0.18750000       0.18750000 </v>
   <v>       0.43750000       0.18750000       0.18750000 </v>
   <v>      -0.43750000       0.18750000       0.18750000 </v>
   <v>      -0.31250000       0.18750000       0.18750000 </v>
   <v>      -0.18750000       0.18750000       0.18750000 </v>
   <v>      -0.06250000       0.18750000       0.18750000 </v>
   <v>       0.06250000       0.31250000       0.18750000 </v>
   <v>       0.18750000       0.31250000       0.18750000 </v>
   <v>       0.31250000       0.31250000       0.18750000 </v>
   <v>       0.43750000       0.31250000       0.18750000 </v>
   <v>      -0.43750000       0.31250000       0.18750000 </v>
   <v>      -0.31250000       0.31250000       0.18750000 </v>
   <v>      -0.18750000       0.31250000       0.18750000 </v>
   <v>      -0.06250000       0.31250000       0.18750000 </v>
   <v>       0.06250000       0.43750000       0.18750000 </v>
   <v>       0.18750000       0.43750000       0.18750000 </v>
   <v>       0.31250000       0.43750000       0.18750000 </v>
   <v>       0.43750000       0.43750000       0.18750000 </v>
   <v>      -0.43750000       0.43750000       0.18750000 </v>
   <v>      -0.31250000       0.43750000       0.18750000 </v>
   <v>      -0.18750000       0.43750000       0.18750000 </v>
   <v>      -0.06250000       0.43750000       0.18750000 </v>
   <v>       0.06250000      -0.43750000       0.18750000 </v>
   <v>       0.18750000      -0.43750000       0.18750000 </v>
   <v>       0.31250000      -0.43750000       0.18750000 </v>
   <v>       0.43750000      -0.43750000       0.18750000 </v>
   <v>      -0.43750000      -0.43750000       0.18750000 </v>
   <v>      -0.31250000      -0.43750000       0.18750000 </v>
   <v>      -0.18750000      -0.43750000       0.18750000 </v>
   <v>      -0.06250000      -0.43750000       0.18750000 </v>
   <v>       0.06250000      -0.31250000       0.18750000 </v>
   <v>       0.18750000      -0.31250000       0.18750000 </v>
   <v>       0.31250000      -0.31250000       0.18750000 </v>
   <v>       0.43750000      -0.31250000       0.18750000 </v>
   <v>      -0.43750000      -0.31250000       0.18750000 </v>
   <v>      -0.31250000      -0.31250000       0.18750000 </v>
   <v>      -0.18750000      -0.31250000       0.18750000 </v>
   <v>      -0.06250000      -0.31250000       0.18750000 </v>
   <v>       0.06250000      -0.18750000       0.18750000 </v>
   <v>       0.18750000      -0.18750000       0.18750000 </v>
   <v>       0.31250000      -0.18750000       0.18750000 </v>
   <v>       0.43750000      -0.18750000       0.18750000 </v>
   <v>      -0.43750000      -0.18750000       0.18750000 </v>
   <v>      -0.31250000      -0.18750000       0.18750000 </v>
   <v>      -0.18750000      -0.18750000       0.18750000 </v>
   <v>      -0.06250000      -0.18750000       0.18750000 </v>
   <v>       0.06250000      -0.06250000       0.18750000 </v>
   <v>       0.18750000      -0.06250000       0.18750000 </v>
   <v>       0.31250000      -0.06250000       0.18750000 </v>
   <v>       0.43750000      -0.06250000       0.18750000 </v>
   <v>      -0.43750000      -0.06250000       0.18750000 </v>
   <v>      -0.31250000      -0.06250000       0.18750000 </v>
   <v>      -0.18750000      -0.06250000       0.18750000 </v>
   <v>      -0.06250000      -0.06250000       0.18750000 </v>
   <v>       0.06250000       0.06250000       0.31250000 </v>
   <v>       0.18750000       0.06250000       0.31250000 </v>
   <v>       0.31250000       0.06250000       0.31250000 </v>
   <v>       0.43750000       0.06250000       0.31250000 </v>
   <v>      -0.43750000       0.06250000       0.31250000 </v>
   <v>      -0.31250000       0.06250000       0.31250000 </v>
   <v>      -0.18750000       0.06250000       0.31250000 </v>
   <v>      -0.06250000       0.06250000       0.31250000 </v>
   <v>       0.06250000       0.18750000       0.31250000 </v>
   <v>       0.18750000       0.18750000       0.31250000 </v>
   <v>       0.31250000       0.18750000       0.31250000 </v>
   <v>       0.43750000       0.18750000       0.31250000 </v>
   <v>      -0.43750000       0.18750000       0.31250000 </v>
   <v>      -0.31250000       0.18750000       0.31250000 </v>
   <v>      -0.18750000       0.18750000       0.31250000 </v>
   <v>      -0.06250000       0.18750000       0.31250000 </v>
   <v>       0.06250000       0.31250000       0.31250000 </v>
   <v>       0.18750000       0.31250000       0.31250000 </v>
   <v>       0.31250000       0.31250000       0.31250000 </v>
   <v>       0.43750000       0.31250000       0.31250000 </v>
   <v>      -0.43750000       0.31250000       0.31250000 </v>
   <v>      -0.31250000       0.31250000       0.31250000 </v>
   <v>      -0.18750000       0.31250000       0.31250000 </v>
   <v>      -0.06250000       0.31250000       0.31250000 </v>
   <v>       0.06250000       0.43750000       0.31250000 </v>
   <v>       0.18750000       0.43750000       0.31250000 </v>
   <v>       0.31250000       0.43750000       0.31250000 </v>
   <v>       0.43750000       0.43750000       0.31250000 </v>
   <v>      -0.43750000       0.43750000       0.31250000 </v>
   <v>      -0.31250000       0.43750000       0.31250000 </v>
   <v>      -0.18750000       0.43750000       0.31250000 </v>
   <v>      -0.06250000       0.43750000       0.31250000 </v>
   <v>       0.06250000      -0.43750000       0.31250000 </v>
   <v>       0.18750000      -0.43750000       0.31250000 </v>
   <v>       0.31250000      -0.43750000       0.31250000 </v>
   <v>       0.43750000      -0.43750000       0.31250000 </v>
   <v>      -0.43750000      -0.43750000       0.31250000 </v>
   <v>      -0.31250000      -0.43750000       0.31250000 </v>
   <v>      -0.18750000      -0.43750000       0.31250000 </v>
   <v>      -0.06250000      -0.43750000       0.31250000 </v>
   <v>       0.06250000      -0.31250000       0.31250000 </v>
   <v>       0.18750000      -0.31250000       0.31250000 </v>
   <v>       0.31250000      -0.31250000       0.31250000 </v>
   <v>       0.43750000      -0.31250000       0.31250000 </v>
   <v>      -0.43750000      -0.31250000       0.31250000 </v>
   <v>      -0.31250000      -0.31250000       0.31250000 </v>
   <v>      -0.18750000      -0.31250000       0.31250000 </v>
   <v>      -0.06250000      -0.31250000       0.31250000 </v>
   <v>       0.06250000      -0.18750000       0.31250000 </v>
   <v>       0.18750000      -0.18750000       0.31250000 </v>
   <v>       0.31250000      -0.18750000       0.31250000 </v>
   <v>       0.43750000      -0.18750000       0.31250000 </v>
   <v>      -0.43750000      -0.18750000       0.31250000 </v>
   <v>      -0.31250000      -0.18750000       0.31250000 </v>
   <v>      -0.18750000      -0.18750000       0.31250000 </v>
   <v>      -0.06250000      -0.18750000       0.31250000 </v>
   <v>       0.06250000      -0.06250000       0.31250000 </v>
   <v>       0.18750000      -0.06250000       0.31250000 </v>
   <v>       0.31250000      -0.06250000       0.31250000 </v>
   <v>       0.43750000      -0.06250000       0.31250000 </v>
   <v>      -0.43750000      -0.06250000       0.31250000 </v>
   <v>      -0.31250000      -0.06250000       0.31250000 </v>
   <v>      -0.18750000      -0.06250000       0.31250000 </v>
   <v>      -0.06250000      -0.06250000       0.31250000 </v>
   <v>       0.06250000       0.06250000       0.43750000 </v>
   <v>       0.18750000       0.06250000       0.43750000 </v>
   <v>       0.31250000       0.06250000       0.43750000 </v>
   <v>       0.43750000       0.06250000       0.43750000 </v>
   <v>      -0.43750000       0.06250000       0.43750000 </v>
   <v>      -0.31250000       0.06250000       0.43750000 </v>
   <v>      -0.18750000       0.06250000       0.43750000 </v>
   <v>      -0.06250000       0.06250000       0.43750000 </v>
   <v>       0.06250000       0.18750000       0.43750000 </v>
   <v>       0.18750000       0.18750000       0.43750000 </v>
   <v>       0.31250000       0.18750000       0.43750000 </v>
   <v>       0.43750000       0.18750000       0.43750000 </v>
   <v>      -0.43750000       0.18750000       0.43750000 </v>
   <v>      -0.31250000       0.18750000       0.43750000 </v>
   <v>      -0.18750000       0.18750000       0.43750000 </v>
   <v>      -0.06250000       0.18750000       0.43750000 </v>
   <v>       0.06250000       0.31250000       0.43750000 </v>
   <v>       0.18750000       0.31250000       0.43750000 </v>
   <v>       0.31250000       0.31250000       0.43750000 </v>
   <v>       0.43750000       0.31250000       0.43750000 </v>
   <v>      -0.43750000       0.31250000       0.43750000 </v>
   <v>      -0.31250000       0.31250000       0.43750000 </v>
   <v>      -0.18750000       0.31250000       0.43750000 </v>
   <v>      -0.06250000       0.31250000       0.43750000 </v>
   <v>       0.06250000       0.43750000       0.43750000 </v>
   <v>       0.18750000       0.43750000       0.43750000 </v>
   <v>       0.31250000       0.43750000       0.43750000 </v>
   <v>       0.43750000       0.43750000       0.43750000 </v>
   <v>      -0.43750000       0.43750000       0.43750000 </v>
   <v>      -0.31250000       0.43750000       0.43750000 </v>
   <v>      -0.18750000       0.43750000       0.43750000 </v>
   <v>      -0.06250000       0.43750000       0.43750000 </v>
   <v>       0.06250000      -0.43750000       0.43750000 </v>
   <v>       0.18750000      -0.43750000       0.43750000 </v>
   <v>       0.31250000      -0.43750000       0.43750000 </v>
   <v>       0.43750000      -0.43750000       0.43750000 </v>
   <v>      -0.43750000      -0.43750000       0.43750000 </v>
   <v>      -0.31250000      -0.43750000       0.43750000 </v>
   <v>      -0.18750000      -0.43750000       0.43750000 </v>
   <v>      -0.06250000      -0.43750000       0.43750000 </v>
   <v>       0.06250000      -0.31250000       0.43750000 </v>
   <v>       0.18750000      -0.31250000       0.43750000 </v>
   <v>       0.31250000      -0.31250000       0.43750000 </v>
   <v>       0.43750000      -0.31250000       0.43750000 </v>
   <v>      -0.43750000      -0.31250000       0.43750000 </v>
   <v>      -0.31250000      -0.31250000       0.43750000 </v>
   <v>      -0.18750000      -0.31250000       0.43750000 </v>
   <v>      -0.06250000      -0.31250000       0.43750000 </v>
   <v>       0.06250000      -0.18750000       0.43750000 </v>
   <v>       0.18750000      -0.18750000       0.43750000 </v>
   <v>       0.31250000      -0.18750000       0.43750000 </v>
   <v>       0.43750000      -0.18750000       0.43750000 </v>
   <v>      -0.43750000      -0.18750000       0.43750000 </v>
   <v>      -0.31250000      -0.18750000       0.43750000 </v>
   <v>      -0.18750000      -0.18750000       0.43750000 </v>
   <v>      -0.06250000      -0.18750000       0.43750000 </v>
   <v>       0.06250000      -0.06250000       0.43750000 </v>
   <v>       0.18750000      -0.06250000       0.43750000 </v>
   <v>       0.31250000      -0.06250000       0.43750000 </v>
   <v>       0.43750000      -0.06250000       0.43750000 </v>
   <v>      -0.43750000      -0.06250000       0.43750000 </v>
   <v>      -0.31250000      -0.06250000       0.43750000 </v>
   <v>      -0.18750000      -0.06250000       0.43750000 </v>
   <v>      -0.06250000      -0.06250000       0.43750000 </v>
  </varray>
  <varray name="weights" >
   <v>       0.00390625 </v>
   <v>       0.00390625 </v>
   <v>       0.00390625 </v>
   <v>       0.00390625 </v>
   <v>       0.00390625 </v>
   <v>       0.00390625 </v>
   <v>       0.00390625 </v>
   <v>       0.00390625 </v>
   <v>       0.00390625 </v>
   <v>       0.00390625 </v>
   <v>       0.00390625 </v>
   <v>       0.00390625 </v>
   <v>       0.00390625 </v>
   <v>       0.00390625 </v>
   <v>       0.00390625 </v>
   <v>       0.00390625 </v>
   <v>       0.00390625 </v>
   <v>       0.00390625 </v>
   <v>       0.00390625 </v>
   <v>       0.00390625 </v>
   <v>       0.00390625 </v>
   <v>       0.00390625 </v>
   <v>       0.00390625 </v>
   <v>       0.00390625 </v>
   <v>       0.00390625 </v>
   <v>       0.00390625 </v>
   <v>       0.00390625 </v>
   <v>       0.00390625 </v>
   <v>       0.00390625 </v>
   <v>       0.00390625 </v>
   <v>       0.00390625 </v>
   <v>       0.00390625 </v>
   <v>       0.00390625 </v>
   <v>       0.00390625 </v>
   <v>       0.00390625 </v>
   <v>       0.00390625 </v>
   <v>       0.00390625 </v>
   <v>       0.00390625 </v>
   <v>       0.00390625 </v>
   <v>       0.00390625 </v>
   <v>       0.00390625 </v>
   <v>       0.00390625 </v>
   <v>       0.00390625 </v>
   <v>       0.00390625 </v>
   <v>       0.00390625 </v>
   <v>       0.00390625 </v>
   <v>       0.00390625 </v>
   <v>       0.00390625 </v>
   <v>       0.00390625 </v>
   <v>       0.00390625 </v>
   <v>       0.00390625 </v>
   <v>       0.00390625 </v>
   <v>       0.00390625 </v>
   <v>       0.00390625 </v>
   <v>       0.00390625 </v>
   <v>       0.00390625 </v>
   <v>       0.00390625 </v>
   <v>       0.00390625 </v>
   <v>       0.00390625 </v>
   <v>       0.00390625 </v>
   <v>       0.00390625 </v>
   <v>       0.00390625 </v>
   <v>       0.00390625 </v>
   <v>       0.00390625 </v>
   <v>       0.00390625 </v>
   <v>       0.00390625 </v>
   <v>       0.00390625 </v>
   <v>       0.00390625 </v>
   <v>       0.00390625 </v>
   <v>       0.00390625 </v>
   <v>       0.00390625 </v>
   <v>       0.00390625 </v>
   <v>       0.00390625 </v>
   <v>       0.00390625 </v>
   <v>       0.00390625 </v>
   <v>       0.00390625 </v>
   <v>       0.00390625 </v>
   <v>       0.00390625 </v>
   <v>       0.00390625 </v>
   <v>       0.00390625 </v>
   <v>       0.00390625 </v>
   <v>       0.00390625 </v>
   <v>       0.00390625 </v>
   <v>       0.00390625 </v>
   <v>       0.00390625 </v>
   <v>       0.00390625 </v>
   <v>       0.00390625 </v>
   <v>       0.00390625 </v>
   <v>       0.00390625 </v>
   <v>       0.00390625 </v>
   <v>       0.00390625 </v>
   <v>       0.00390625 </v>
   <v>       0.00390625 </v>
   <v>       0.00390625 </v>
   <v>       0.00390625 </v>
   <v>       0.00390625 </v>
   <v>       0.00390625 </v>
   <v>       0.00390625 </v>
   <v>       0.00390625 </v>
   <v>       0.00390625 </v>
   <v>       0.00390625 </v>
   <v>       0.00390625 </v>
   <v>       0.00390625 </v>
   <v>       0.00390625 </v>
   <v>       0.00390625 </v>
   <v>       0.00390625 </v>
   <v>       0.00390625 </v>
   <v>       0.00390625 </v>
   <v>       0.00390625 </v>
   <v>       0.00390625 </v>
   <v>       0.00390625 </v>
   <v>       0.00390625 </v>
   <v>       0.00390625 </v>
   <v>       0.00390625 </v>
   <v>       0.00390625 </v>
   <v>       0.00390625 </v>
   <v>       0.00390625 </v>
   <v>       0.00390625 </v>
   <v>       0.00390625 </v>
   <v>       0.00390625 </v>
   <v>       0.00390625 </v>
   <v>       0.00390625 </v>
   <v>       0.00390625 </v>
   <v>       0.00390625 </v>
   <v>       0.00390625 </v>
   <v>       0.00390625 </v>
   <v>       0.00390625 </v>
   <v>       0.00390625 </v>
   <v>       0.00390625 </v>
   <v>       0.00390625 </v>
   <v>       0.00390625 </v>
   <v>       0.00390625 </v>
   <v>       0.00390625 </v>
   <v>       0.00390625 </v>
   <v>       0.00390625 </v>
   <v>       0.00390625 </v>
   <v>       0.00390625 </v>
   <v>       0.00390625 </v>
   <v>       0.00390625 </v>
   <v>       0.00390625 </v>
   <v>       0.00390625 </v>
   <v>       0.00390625 </v>
   <v>       0.00390625 </v>
   <v>       0.00390625 </v>
   <v>       0.00390625 </v>
   <v>       0.00390625 </v>
   <v>       0.00390625 </v>
   <v>       0.00390625 </v>
   <v>       0.00390625 </v>
   <v>       0.00390625 </v>
   <v>       0.00390625 </v>
   <v>       0.00390625 </v>
   <v>       0.00390625 </v>
   <v>       0.00390625 </v>
   <v>       0.00390625 </v>
   <v>       0.00390625 </v>
   <v>       0.00390625 </v>
   <v>       0.00390625 </v>
   <v>       0.00390625 </v>
   <v>       0.00390625 </v>
   <v>       0.00390625 </v>
   <v>       0.00390625 </v>
   <v>       0.00390625 </v>
   <v>       0.00390625 </v>
   <v>       0.00390625 </v>
   <v>       0.00390625 </v>
   <v>       0.00390625 </v>
   <v>       0.00390625 </v>
   <v>       0.00390625 </v>
   <v>       0.00390625 </v>
   <v>       0.00390625 </v>
   <v>       0.00390625 </v>
   <v>       0.00390625 </v>
   <v>       0.00390625 </v>
   <v>       0.00390625 </v>
   <v>       0.00390625 </v>
   <v>       0.00390625 </v>
   <v>       0.00390625 </v>
   <v>       0.00390625 </v>
   <v>       0.00390625 </v>
   <v>       0.00390625 </v>
   <v>       0.00390625 </v>
   <v>       0.00390625 </v>
   <v>       0.00390625 </v>
   <v>       0.00390625 </v>
   <v>       0.00390625 </v>
   <v>       0.00390625 </v>
   <v>       0.00390625 </v>
   <v>       0.00390625 </v>
   <v>       0.00390625 </v>
   <v>       0.00390625 </v>
   <v>       0.00390625 </v>
   <v>       0.00390625 </v>
   <v>       0.00390625 </v>
   <v>       0.00390625 </v>
   <v>       0.00390625 </v>
   <v>       0.00390625 </v>
   <v>       0.00390625 </v>
   <v>       0.00390625 </v>
   <v>       0.00390625 </v>
   <v>       0.00390625 </v>
   <v>       0.00390625 </v>
   <v>       0.00390625 </v>
   <v>       0.00390625 </v>
   <v>       0.00390625 </v>
   <v>       0.00390625 </v>
   <v>       0.00390625 </v>
   <v>       0.00390625 </v>
   <v>       0.00390625 </v>
   <v>       0.00390625 </v>
   <v>       0.00390625 </v>
   <v>       0.00390625 </v>
   <v>       0.00390625 </v>
   <v>       0.00390625 </v>
   <v>       0.00390625 </v>
   <v>       0.00390625 </v>
   <v>       0.00390625 </v>
   <v>       0.00390625 </v>
   <v>       0.00390625 </v>
   <v>       0.00390625 </v>
   <v>       0.00390625 </v>
   <v>       0.00390625 </v>
   <v>       0.00390625 </v>
   <v>       0.00390625 </v>
   <v>       0.00390625 </v>
   <v>       0.00390625 </v>
   <v>       0.00390625 </v>
   <v>       0.00390625 </v>
   <v>       0.00390625 </v>
   <v>       0.00390625 </v>
   <v>       0.00390625 </v>
   <v>       0.00390625 </v>
   <v>       0.00390625 </v>
   <v>       0.00390625 </v>
   <v>       0.00390625 </v>
   <v>       0.00390625 </v>
   <v>       0.00390625 </v>
   <v>       0.00390625 </v>
   <v>       0.00390625 </v>
   <v>       0.00390625 </v>
   <v>       0.00390625 </v>
   <v>       0.00390625 </v>
   <v>       0.00390625 </v>
   <v>       0.00390625 </v>
   <v>       0.00390625 </v>
   <v>       0.00390625 </v>
   <v>       0.00390625 </v>
   <v>       0.00390625 </v>
   <v>       0.00390625 </v>
   <v>       0.00390625 </v>
   <v>       0.00390625 </v>
   <v>       0.00390625 </v>
   <v>       0.00390625 </v>
   <v>       0.00390625 </v>
   <v>       0.00390625 </v>
   <v>       0.00390625 </v>
  </varray>
  <varray name="tetrahedronlist"  type="int" >
   <v type="int" >        2        1        2       10       65 </v>
   <v type="int" >        2        1        9       10       65 </v>
   <v type="int" >        2        9       10       65       73 </v>
   <v type="int" >        2        2       10       65       66 </v>
   <v type="int" >        2       10       65       66       74 </v>
   <v type="int" >        2       10       65       73       74 </v>
   <v type="int" >        2        2        3       11       66 </v>
   <v type="int" >        2        2       10       11       66 </v>
   <v type="int" >        2       10       11       66       74 </v>
   <v type="int" >        2        3       11       66       67 </v>
   <v type="int" >        2       11       66       67       75 </v>
   <v type="int" >        2       11       66       74       75 </v>
   <v type="int" >        2        3        4       12       67 </v>
   <v type="int" >        2        3       11       12       67 </v>
   <v type="int" >        2       11       12       67       75 </v>
   <v type="int" >        2        4       12       67       68 </v>
   <v type="int" >        2       12       67       68       76 </v>
   <v type="int" >        2       12       67       75       76 </v>
   <v type="int" >        2        4        5       13       68 </v>
   <v type="int" >        2        4       12       13       68 </v>
   <v type="int" >        2       12       13       68       76 </v>
   <v type="int" >        2        5       13       68       69 </v>
   <v type="int" >        2       13       68       69       77 </v>
   <v type="int" >        2       13       68       76       77 </v>
   <v type="int" >        2        5        6       14       69 </v>
   <v type="int" >        2        5       13       14       69 </v>
   <v type="int" >        2       13       14       69       77 </v>
   <v type="int" >        2        6       14       69       70 </v>
   <v type="int" >        2       14       69       70       78 </v>
   <v type="int" >        2       14       69       77       78 </v>
   <v type="int" >        2        6        7       15       70 </v>
   <v type="int" >        2        6       14       15       70 </v>
   <v type="int" >        2       14       15       70       78 </v>
   <v type="int" >        2        7       15       70       71 </v>
   <v type="int" >        2       15       70       71       79 </v>
   <v type="int" >        2       15       70       78       79 </v>
   <v type="int" >        2        7        8       16       71 </v>
   <v type="int" >        2        7       15       16       71 </v>
   <v type="int" >        2       15       16       71       79 </v>
   <v type="int" >        2        8       16       71       72 </v>
   <v type="int" >        2       16       71       72       80 </v>
   <v type="int" >        2       16       71       79       80 </v>
   <v type="int" >        2        1        8        9       72 </v>
   <v type="int" >        2        8        9       16       72 </v>
   <v type="int" >        2        9       16       72       80 </v>
   <v type="int" >        2        1        9       65       72 </v>
   <v type="int" >        2        9       65       72       73 </v>
   <v type="int" >        2        9       72       73       80 </v>
   <v type="int" >        2        9       10       18       73 </v>
   <v type="int" >        2        9       17       18       73 </v>
   <v type="int" >        2       17       18       73       81 </v>
   <v type="int" >        2       10       18       73       74 </v>
   <v type="int" >        2       18       73       74       82 </v>
   <v type="int" >        2       18       73       81       82 </v>
   <v type="int" >        2       10       11       19       74 </v>
   <v type="int" >        2       10       18       19       74 </v>
   <v type="int" >        2       18       19       74       82 </v>
   <v type="int" >        2       11       19       74       75 </v>
   <v type="int" >        2       19       74       75       83 </v>
   <v type="int" >        2       19       74       82       83 </v>
   <v type="int" >        2       11       12       20       75 </v>
   <v type="int" >        2       11       19       20       75 </v>
   <v type="int" >        2       19       20       75       83 </v>
   <v type="int" >        2       12       20       75       76 </v>
   <v type="int" >        2       20       75       76       84 </v>
   <v type="int" >        2       20       75       83       84 </v>
   <v type="int" >        2       12       13       21       76 </v>
   <v type="int" >        2       12       20       21       76 </v>
   <v type="int" >        2       20       21       76       84 </v>
   <v type="int" >        2       13       21       76       77 </v>
   <v type="int" >        2       21       76       77       85 </v>
   <v type="int" >        2       21       76       84       85 </v>
   <v type="int" >        2       13       14       22       77 </v>
   <v type="int" >        2       13       21       22       77 </v>
   <v type="int" >        2       21       22       77       85 </v>
   <v type="int" >        2       14       22       77       78 </v>
   <v type="int" >        2       22       77       78       86 </v>
   <v type="int" >        2       22       77       85       86 </v>
   <v type="int" >        2       14       15       23       78 </v>
   <v type="int" >        2       14       22       23       78 </v>
   <v type="int" >        2       22       23       78       86 </v>
   <v type="int" >        2       15       23       78       79 </v>
   <v type="int" >        2       23       78       79       87 </v>
   <v type="int" >        2       23       78       86       87 </v>
   <v type="int" >        2       15       16       24       79 </v>
   <v type="int" >        2       15       23       24       79 </v>
   <v type="int" >        2       23       24       79       87 </v>
   <v type="int" >        2       16       24       79       80 </v>
   <v type="int" >        2       24       79       80       88 </v>
   <v type="int" >        2       24       79       87       88 </v>
   <v type="int" >        2        9       16       17       80 </v>
   <v type="int" >        2       16       17       24       80 </v>
   <v type="int" >        2       17       24       80       88 </v>
   <v type="int" >        2        9       17       73       80 </v>
   <v type="int" >        2       17       73       80       81 </v>
   <v type="int" >        2       17       80       81       88 </v>
   <v type="int" >        2       17       18       26       81 </v>
   <v type="int" >        2       17       25       26       81 </v>
   <v type="int" >        2       25       26       81       89 </v>
   <v type="int" >        2       18       26       81       82 </v>
   <v type="int" >        2       26       81       82       90 </v>
   <v type="int" >        2       26       81       89       90 </v>
   <v type="int" >        2       18       19       27       82 </v>
   <v type="int" >        2       18       26       27       82 </v>
   <v type="int" >        2       26       27       82       90 </v>
   <v type="int" >        2       19       27       82       83 </v>
   <v type="int" >        2       27       82       83       91 </v>
   <v type="int" >        2       27       82       90       91 </v>
   <v type="int" >        2       19       20       28       83 </v>
   <v type="int" >        2       19       27       28       83 </v>
   <v type="int" >        2       27       28       83       91 </v>
   <v type="int" >        2       20       28       83       84 </v>
   <v type="int" >        2       28       83       84       92 </v>
   <v type="int" >        2       28       83       91       92 </v>
   <v type="int" >        2       20       21       29       84 </v>
   <v type="int" >        2       20       28       29       84 </v>
   <v type="int" >        2       28       29       84       92 </v>
   <v type="int" >        2       21       29       84       85 </v>
   <v type="int" >        2       29       84       85       93 </v>
   <v type="int" >        2       29       84       92       93 </v>
   <v type="int" >        2       21       22       30       85 </v>
   <v type="int" >        2       21       29       30       85 </v>
   <v type="int" >        2       29       30       85       93 </v>
   <v type="int" >        2       22       30       85       86 </v>
   <v type="int" >        2       30       85       86       94 </v>
   <v type="int" >        2       30       85       93       94 </v>
   <v type="int" >        2       22       23       31       86 </v>
   <v type="int" >        2       22       30       31       86 </v>
   <v type="int" >        2       30       31       86       94 </v>
   <v type="int" >        2       23       31       86       87 </v>
   <v type="int" >        2       31       86       87       95 </v>
   <v type="int" >        2       31       86       94       95 </v>
   <v type="int" >        2       23       24       32       87 </v>
   <v type="int" >        2       23       31       32       87 </v>
   <v type="int" >        2       31       32       87       95 </v>
   <v type="int" >        2       24       32       87       88 </v>
   <v type="int" >        2       32       87       88       96 </v>
   <v type="int" >        2       32       87       95       96 </v>
   <v type="int" >        2       17       24       25       88 </v>
   <v type="int" >        2       24       25       32       88 </v>
   <v type="int" >        2       25       32       88       96 </v>
   <v type="int" >        2       17       25       81       88 </v>
   <v type="int" >        2       25       81       88       89 </v>
   <v type="int" >        2       25       88       89       96 </v>
   <v type="int" >        2       25       26       34       89 </v>
   <v type="int" >        2       25       33       34       89 </v>
   <v type="int" >        2       33       34       89       97 </v>
   <v type="int" >        2       26       34       89       90 </v>
   <v type="int" >        2       34       89       90       98 </v>
   <v type="int" >        2       34       89       97       98 </v>
   <v type="int" >        2       26       27       35       90 </v>
   <v type="int" >        2       26       34       35       90 </v>
   <v type="int" >        2       34       35       90       98 </v>
   <v type="int" >        2       27       35       90       91 </v>
   <v type="int" >        2       35       90       91       99 </v>
   <v type="int" >        2       35       90       98       99 </v>
   <v type="int" >        2       27       28       36       91 </v>
   <v type="int" >        2       27       35       36       91 </v>
   <v type="int" >        2       35       36       91       99 </v>
   <v type="int" >        2       28       36       91       92 </v>
   <v type="int" >        2       36       91       92      100 </v>
   <v type="int" >        2       36       91       99      100 </v>
   <v type="int" >        2       28       29       37       92 </v>
   <v type="int" >        2       28       36       37       92 </v>
   <v type="int" >        2       36       37       92      100 </v>
   <v type="int" >        2       29       37       92       93 </v>
   <v type="int" >        2       37       92       93      101 </v>
   <v type="int" >        2       37       92      100      101 </v>
   <v type="int" >        2       29       30       38       93 </v>
   <v type="int" >        2       29       37       38       93 </v>
   <v type="int" >        2       37       38       93      101 </v>
   <v type="int" >        2       30       38       93       94 </v>
   <v type="int" >        2       38       93       94      102 </v>
   <v type="int" >        2       38       93      101      102 </v>
   <v type="int" >        2       30       31       39       94 </v>
   <v type="int" >        2       30       38       39       94 </v>
   <v type="int" >        2       38       39       94      102 </v>
   <v type="int" >        2       31       39       94       95 </v>
   <v type="int" >        2       39       94       95      103 </v>
   <v type="int" >        2       39       94      102      103 </v>
   <v type="int" >        2       31       32       40       95 </v>
   <v type="int" >        2       31       39       40       95 </v>
   <v type="int" >        2       39       40       95      103 </v>
   <v type="int" >        2       32       40       95       96 </v>
   <v type="int" >        2       40       95       96      104 </v>
   <v type="int" >        2       40       95      103      104 </v>
   <v type="int" >        2       25       32       33       96 </v>
   <v type="int" >        2       32       33       40       96 </v>
   <v type="int" >        2       33       40       96      104 </v>
   <v type="int" >        2       25       33       89       96 </v>
   <v type="int" >        2       33       89       96       97 </v>
   <v type="int" >        2       33       96       97      104 </v>
   <v type="int" >        2       33       34       42       97 </v>
   <v type="int" >        2       33       41       42       97 </v>
   <v type="int" >        2       41       42       97      105 </v>
   <v type="int" >        2       34       42       97       98 </v>
   <v type="int" >        2       42       97       98      106 </v>
   <v type="int" >        2       42       97      105      106 </v>
   <v type="int" >        2       34       35       43       98 </v>
   <v type="int" >        2       34       42       43       98 </v>
   <v type="int" >        2       42       43       98      106 </v>
   <v type="int" >        2       35       43       98       99 </v>
   <v type="int" >        2       43       98       99      107 </v>
   <v type="int" >        2       43       98      106      107 </v>
   <v type="int" >        2       35       36       44       99 </v>
   <v type="int" >        2       35       43       44       99 </v>
   <v type="int" >        2       43       44       99      107 </v>
   <v type="int" >        2       36       44       99      100 </v>
   <v type="int" >        2       44       99      100      108 </v>
   <v type="int" >        2       44       99      107      108 </v>
   <v type="int" >        2       36       37       45      100 </v>
   <v type="int" >        2       36       44       45      100 </v>
   <v type="int" >        2       44       45      100      108 </v>
   <v type="int" >        2       37       45      100      101 </v>
   <v type="int" >        2       45      100      101      109 </v>
   <v type="int" >        2       45      100      108      109 </v>
   <v type="int" >        2       37       38       46      101 </v>
   <v type="int" >        2       37       45       46      101 </v>
   <v type="int" >        2       45       46      101      109 </v>
   <v type="int" >        2       38       46      101      102 </v>
   <v type="int" >        2       46      101      102      110 </v>
   <v type="int" >        2       46      101      109      110 </v>
   <v type="int" >        2       38       39       47      102 </v>
   <v type="int" >        2       38       46       47      102 </v>
   <v type="int" >        2       46       47      102      110 </v>
   <v type="int" >        2       39       47      102      103 </v>
   <v type="int" >        2       47      102      103      111 </v>
   <v type="int" >        2       47      102      110      111 </v>
   <v type="int" >        2       39       40       48      103 </v>
   <v type="int" >        2       39       47       48      103 </v>
   <v type="int" >        2       47       48      103      111 </v>
   <v type="int" >        2       40       48      103      104 </v>
   <v type="int" >        2       48      103      104      112 </v>
   <v type="int" >        2       48      103      111      112 </v>
   <v type="int" >        2       33       40       41      104 </v>
   <v type="int" >        2       40       41       48      104 </v>
   <v type="int" >        2       41       48      104      112 </v>
   <v type="int" >        2       33       41       97      104 </v>
   <v type="int" >        2       41       97      104      105 </v>
   <v type="int" >        2       41      104      105      112 </v>
   <v type="int" >        2       41       42       50      105 </v>
   <v type="int" >        2       41       49       50      105 </v>
   <v type="int" >        2       49       50      105      113 </v>
   <v type="int" >        2       42       50      105      106 </v>
   <v type="int" >        2       50      105      106      114 </v>
   <v type="int" >        2       50      105      113      114 </v>
   <v type="int" >        2       42       43       51      106 </v>
   <v type="int" >        2       42       50       51      106 </v>
   <v type="int" >        2       50       51      106      114 </v>
   <v type="int" >        2       43       51      106      107 </v>
   <v type="int" >        2       51      106      107      115 </v>
   <v type="int" >        2       51      106      114      115 </v>
   <v type="int" >        2       43       44       52      107 </v>
   <v type="int" >        2       43       51       52      107 </v>
   <v type="int" >        2       51       52      107      115 </v>
   <v type="int" >        2       44       52      107      108 </v>
   <v type="int" >        2       52      107      108      116 </v>
   <v type="int" >        2       52      107      115      116 </v>
   <v type="int" >        2       44       45       53      108 </v>
   <v type="int" >        2       44       52       53      108 </v>
   <v type="int" >        2       52       53      108      116 </v>
   <v type="int" >        2       45       53      108      109 </v>
   <v type="int" >        2       53      108      109      117 </v>
   <v type="int" >        2       53      108      116      117 </v>
   <v type="int" >        2       45       46       54      109 </v>
   <v type="int" >        2       45       53       54      109 </v>
   <v type="int" >        2       53       54      109      117 </v>
   <v type="int" >        2       46       54      109      110 </v>
   <v type="int" >        2       54      109      110      118 </v>
   <v type="int" >        2       54      109      117      118 </v>
   <v type="int" >        2       46       47       55      110 </v>
   <v type="int" >        2       46       54       55      110 </v>
   <v type="int" >        2       54       55      110      118 </v>
   <v type="int" >        2       47       55      110      111 </v>
   <v type="int" >        2       55      110      111      119 </v>
   <v type="int" >        2       55      110      118      119 </v>
   <v type="int" >        2       47       48       56      111 </v>
   <v type="int" >        2       47       55       56      111 </v>
   <v type="int" >        2       55       56      111      119 </v>
   <v type="int" >        2       48       56      111      112 </v>
   <v type="int" >        2       56      111      112      120 </v>
   <v type="int" >        2       56      111      119      120 </v>
   <v type="int" >        2       41       48       49      112 </v>
   <v type="int" >        2       48       49       56      112 </v>
   <v type="int" >        2       49       56      112      120 </v>
   <v type="int" >        2       41       49      105      112 </v>
   <v type="int" >        2       49      105      112      113 </v>
   <v type="int" >        2       49      112      113      120 </v>
   <v type="int" >        2       49       50       58      113 </v>
   <v type="int" >        2       49       57       58      113 </v>
   <v type="int" >        2       57       58      113      121 </v>
   <v type="int" >        2       50       58      113      114 </v>
   <v type="int" >        2       58      113      114      122 </v>
   <v type="int" >        2       58      113      121      122 </v>
   <v type="int" >        2       50       51       59      114 </v>
   <v type="int" >        2       50       58       59      114 </v>
   <v type="int" >        2       58       59      114      122 </v>
   <v type="int" >        2       51       59      114      115 </v>
   <v type="int" >        2       59      114      115      123 </v>
   <v type="int" >        2       59      114      122      123 </v>
   <v type="int" >        2       51       52       60      115 </v>
   <v type="int" >        2       51       59       60      115 </v>
   <v type="int" >        2       59       60      115      123 </v>
   <v type="int" >        2       52       60      115      116 </v>
   <v type="int" >        2       60      115      116      124 </v>
   <v type="int" >        2       60      115      123      124 </v>
   <v type="int" >        2       52       53       61      116 </v>
   <v type="int" >        2       52       60       61      116 </v>
   <v type="int" >        2       60       61      116      124 </v>
   <v type="int" >        2       53       61      116      117 </v>
   <v type="int" >        2       61      116      117      125 </v>
   <v type="int" >        2       61      116      124      125 </v>
   <v type="int" >        2       53       54       62      117 </v>
   <v type="int" >        2       53       61       62      117 </v>
   <v type="int" >        2       61       62      117      125 </v>
   <v type="int" >        2       54       62      117      118 </v>
   <v type="int" >        2       62      117      118      126 </v>
   <v type="int" >        2       62      117      125      126 </v>
   <v type="int" >        2       54       55       63      118 </v>
   <v type="int" >        2       54       62       63      118 </v>
   <v type="int" >        2       62       63      118      126 </v>
   <v type="int" >        2       55       63      118      119 </v>
   <v type="int" >        2       63      118      119      127 </v>
   <v type="int" >        2       63      118      126      127 </v>
   <v type="int" >        2       55       56       64      119 </v>
   <v type="int" >        2       55       63       64      119 </v>
   <v type="int" >        2       63       64      119      127 </v>
   <v type="int" >        2       56       64      119      120 </v>
   <v type="int" >        2       64      119      120      128 </v>
   <v type="int" >        2       64      119      127      128 </v>
   <v type="int" >        2       49       56       57      120 </v>
   <v type="int" >        2       56       57       64      120 </v>
   <v type="int" >        2       57       64      120      128 </v>
   <v type="int" >        2       49       57      113      120 </v>
   <v type="int" >        2       57      113      120      121 </v>
   <v type="int" >        2       57      120      121      128 </v>
   <v type="int" >        2        2       57       58      121 </v>
   <v type="int" >        2        1        2       57      121 </v>
   <v type="int" >        2        1        2       65      121 </v>
   <v type="int" >        2        2       58      121      122 </v>
   <v type="int" >        2        2       66      121      122 </v>
   <v type="int" >        2        2       65       66      121 </v>
   <v type="int" >        2        3       58       59      122 </v>
   <v type="int" >        2        2        3       58      122 </v>
   <v type="int" >        2        2        3       66      122 </v>
   <v type="int" >        2        3       59      122      123 </v>
   <v type="int" >        2        3       67      122      123 </v>
   <v type="int" >        2        3       66       67      122 </v>
   <v type="int" >        2        4       59       60      123 </v>
   <v type="int" >        2        3        4       59      123 </v>
   <v type="int" >        2        3        4       67      123 </v>
   <v type="int" >        2        4       60      123      124 </v>
   <v type="int" >        2        4       68      123      124 </v>
   <v type="int" >        2        4       67       68      123 </v>
   <v type="int" >        2        5       60       61      124 </v>
   <v type="int" >        2        4        5       60      124 </v>
   <v type="int" >        2        4        5       68      124 </v>
   <v type="int" >        2        5       61      124      125 </v>
   <v type="int" >        2        5       69      124      125 </v>
   <v type="int" >        2        5       68       69      124 </v>
   <v type="int" >        2        6       61       62      125 </v>
   <v type="int" >        2        5        6       61      125 </v>
   <v type="int" >        2        5        6       69      125 </v>
   <v type="int" >        2        6       62      125      126 </v>
   <v type="int" >        2        6       70      125      126 </v>
   <v type="int" >        2        6       69       70      125 </v>
   <v type="int" >        2        7       62       63      126 </v>
   <v type="int" >        2        6        7       62      126 </v>
   <v type="int" >        2        6        7       70      126 </v>
   <v type="int" >        2        7       63      126      127 </v>
   <v type="int" >        2        7       71      126      127 </v>
   <v type="int" >        2        7       70       71      126 </v>
   <v type="int" >        2        8       63       64      127 </v>
   <v type="int" >        2        7        8       63      127 </v>
   <v type="int" >        2        7        8       71      127 </v>
   <v type="int" >        2        8       64      127      128 </v>
   <v type="int" >        2        8       72      127      128 </v>
   <v type="int" >        2        8       71       72      127 </v>
   <v type="int" >        2        1       57       64      128 </v>
   <v type="int" >        2        1        8       64      128 </v>
   <v type="int" >        2        1        8       72      128 </v>
   <v type="int" >        2        1       57      121      128 </v>
   <v type="int" >        2        1       65      121      128 </v>
   <v type="int" >        2        1       65       72      128 </v>
   <v type="int" >        2       65       66       74      129 </v>
   <v type="int" >        2       65       73       74      129 </v>
   <v type="int" >        2       73       74      129      137 </v>
   <v type="int" >        2       66       74      129      130 </v>
   <v type="int" >        2       74      129      130      138 </v>
   <v type="int" >        2       74      129      137      138 </v>
   <v type="int" >        2       66       67       75      130 </v>
   <v type="int" >        2       66       74       75      130 </v>
   <v type="int" >        2       74       75      130      138 </v>
   <v type="int" >        2       67       75      130      131 </v>
   <v type="int" >        2       75      130      131      139 </v>
   <v type="int" >        2       75      130      138      139 </v>
   <v type="int" >        2       67       68       76      131 </v>
   <v type="int" >        2       67       75       76      131 </v>
   <v type="int" >        2       75       76      131      139 </v>
   <v type="int" >        2       68       76      131      132 </v>
   <v type="int" >        2       76      131      132      140 </v>
   <v type="int" >        2       76      131      139      140 </v>
   <v type="int" >        2       68       69       77      132 </v>
   <v type="int" >        2       68       76       77      132 </v>
   <v type="int" >        2       76       77      132      140 </v>
   <v type="int" >        2       69       77      132      133 </v>
   <v type="int" >        2       77      132      133      141 </v>
   <v type="int" >        2       77      132      140      141 </v>
   <v type="int" >        2       69       70       78      133 </v>
   <v type="int" >        2       69       77       78      133 </v>
   <v type="int" >        2       77       78      133      141 </v>
   <v type="int" >        2       70       78      133      134 </v>
   <v type="int" >        2       78      133      134      142 </v>
   <v type="int" >        2       78      133      141      142 </v>
   <v type="int" >        2       70       71       79      134 </v>
   <v type="int" >        2       70       78       79      134 </v>
   <v type="int" >        2       78       79      134      142 </v>
   <v type="int" >        2       71       79      134      135 </v>
   <v type="int" >        2       79      134      135      143 </v>
   <v type="int" >        2       79      134      142      143 </v>
   <v type="int" >        2       71       72       80      135 </v>
   <v type="int" >        2       71       79       80      135 </v>
   <v type="int" >        2       79       80      135      143 </v>
   <v type="int" >        2       72       80      135      136 </v>
   <v type="int" >        2       80      135      136      144 </v>
   <v type="int" >        2       80      135      143      144 </v>
   <v type="int" >        2       65       72       73      136 </v>
   <v type="int" >        2       72       73       80      136 </v>
   <v type="int" >        2       73       80      136      144 </v>
   <v type="int" >        2       65       73      129      136 </v>
   <v type="int" >        2       73      129      136      137 </v>
   <v type="int" >        2       73      136      137      144 </v>
   <v type="int" >        2       73       74       82      137 </v>
   <v type="int" >        2       73       81       82      137 </v>
   <v type="int" >        2       81       82      137      145 </v>
   <v type="int" >        2       74       82      137      138 </v>
   <v type="int" >        2       82      137      138      146 </v>
   <v type="int" >        2       82      137      145      146 </v>
   <v type="int" >        2       74       75       83      138 </v>
   <v type="int" >        2       74       82       83      138 </v>
   <v type="int" >        2       82       83      138      146 </v>
   <v type="int" >        2       75       83      138      139 </v>
   <v type="int" >        2       83      138      139      147 </v>
   <v type="int" >        2       83      138      146      147 </v>
   <v type="int" >        2       75       76       84      139 </v>
   <v type="int" >        2       75       83       84      139 </v>
   <v type="int" >        2       83       84      139      147 </v>
   <v type="int" >        2       76       84      139      140 </v>
   <v type="int" >        2       84      139      140      148 </v>
   <v type="int" >        2       84      139      147      148 </v>
   <v type="int" >        2       76       77       85      140 </v>
   <v type="int" >        2       76       84       85      140 </v>
   <v type="int" >        2       84       85      140      148 </v>
   <v type="int" >        2       77       85      140      141 </v>
   <v type="int" >        2       85      140      141      149 </v>
   <v type="int" >        2       85      140      148      149 </v>
   <v type="int" >        2       77       78       86      141 </v>
   <v type="int" >        2       77       85       86      141 </v>
   <v type="int" >        2       85       86      141      149 </v>
   <v type="int" >        2       78       86      141      142 </v>
   <v type="int" >        2       86      141      142      150 </v>
   <v type="int" >        2       86      141      149      150 </v>
   <v type="int" >        2       78       79       87      142 </v>
   <v type="int" >        2       78       86       87      142 </v>
   <v type="int" >        2       86       87      142      150 </v>
   <v type="int" >        2       79       87      142      143 </v>
   <v type="int" >        2       87      142      143      151 </v>
   <v type="int" >        2       87      142      150      151 </v>
   <v type="int" >        2       79       80       88      143 </v>
   <v type="int" >        2       79       87       88      143 </v>
   <v type="int" >        2       87       88      143      151 </v>
   <v type="int" >        2       80       88      143      144 </v>
   <v type="int" >        2       88      143      144      152 </v>
   <v type="int" >        2       88      143      151      152 </v>
   <v type="int" >        2       73       80       81      144 </v>
   <v type="int" >        2       80       81       88      144 </v>
   <v type="int" >        2       81       88      144      152 </v>
   <v type="int" >        2       73       81      137      144 </v>
   <v type="int" >        2       81      137      144      145 </v>
   <v type="int" >        2       81      144      145      152 </v>
   <v type="int" >        2       81       82       90      145 </v>
   <v type="int" >        2       81       89       90      145 </v>
   <v type="int" >        2       89       90      145      153 </v>
   <v type="int" >        2       82       90      145      146 </v>
   <v type="int" >        2       90      145      146      154 </v>
   <v type="int" >        2       90      145      153      154 </v>
   <v type="int" >        2       82       83       91      146 </v>
   <v type="int" >        2       82       90       91      146 </v>
   <v type="int" >        2       90       91      146      154 </v>
   <v type="int" >        2       83       91      146      147 </v>
   <v type="int" >        2       91      146      147      155 </v>
   <v type="int" >        2       91      146      154      155 </v>
   <v type="int" >        2       83       84       92      147 </v>
   <v type="int" >        2       83       91       92      147 </v>
   <v type="int" >        2       91       92      147      155 </v>
   <v type="int" >        2       84       92      147      148 </v>
   <v type="int" >        2       92      147      148      156 </v>
   <v type="int" >        2       92      147      155      156 </v>
   <v type="int" >        2       84       85       93      148 </v>
   <v type="int" >        2       84       92       93      148 </v>
   <v type="int" >        2       92       93      148      156 </v>
   <v type="int" >        2       85       93      148      149 </v>
   <v type="int" >        2       93      148      149      157 </v>
   <v type="int" >        2       93      148      156      157 </v>
   <v type="int" >        2       85       86       94      149 </v>
   <v type="int" >        2       85       93       94      149 </v>
   <v type="int" >        2       93       94      149      157 </v>
   <v type="int" >        2       86       94      149      150 </v>
   <v type="int" >        2       94      149      150      158 </v>
   <v type="int" >        2       94      149      157      158 </v>
   <v type="int" >        2       86       87       95      150 </v>
   <v type="int" >        2       86       94       95      150 </v>
   <v type="int" >        2       94       95      150      158 </v>
   <v type="int" >        2       87       95      150      151 </v>
   <v type="int" >        2       95      150      151      159 </v>
   <v type="int" >        2       95      150      158      159 </v>
   <v type="int" >        2       87       88       96      151 </v>
   <v type="int" >        2       87       95       96      151 </v>
   <v type="int" >        2       95       96      151      159 </v>
   <v type="int" >        2       88       96      151      152 </v>
   <v type="int" >        2       96      151      152      160 </v>
   <v type="int" >        2       96      151      159      160 </v>
   <v type="int" >        2       81       88       89      152 </v>
   <v type="int" >        2       88       89       96      152 </v>
   <v type="int" >        2       89       96      152      160 </v>
   <v type="int" >        2       81       89      145      152 </v>
   <v type="int" >        2       89      145      152      153 </v>
   <v type="int" >        2       89      152      153      160 </v>
   <v type="int" >        2       89       90       98      153 </v>
   <v type="int" >        2       89       97       98      153 </v>
   <v type="int" >        2       97       98      153      161 </v>
   <v type="int" >        2       90       98      153      154 </v>
   <v type="int" >        2       98      153      154      162 </v>
   <v type="int" >        2       98      153      161      162 </v>
   <v type="int" >        2       90       91       99      154 </v>
   <v type="int" >        2       90       98       99      154 </v>
   <v type="int" >        2       98       99      154      162 </v>
   <v type="int" >        2       91       99      154      155 </v>
   <v type="int" >        2       99      154      155      163 </v>
   <v type="int" >        2       99      154      162      163 </v>
   <v type="int" >        2       91       92      100      155 </v>
   <v type="int" >        2       91       99      100      155 </v>
   <v type="int" >        2       99      100      155      163 </v>
   <v type="int" >        2       92      100      155      156 </v>
   <v type="int" >        2      100      155      156      164 </v>
   <v type="int" >        2      100      155      163      164 </v>
   <v type="int" >        2       92       93      101      156 </v>
   <v type="int" >        2       92      100      101      156 </v>
   <v type="int" >        2      100      101      156      164 </v>
   <v type="int" >        2       93      101      156      157 </v>
   <v type="int" >        2      101      156      157      165 </v>
   <v type="int" >        2      101      156      164      165 </v>
   <v type="int" >        2       93       94      102      157 </v>
   <v type="int" >        2       93      101      102      157 </v>
   <v type="int" >        2      101      102      157      165 </v>
   <v type="int" >        2       94      102      157      158 </v>
   <v type="int" >        2      102      157      158      166 </v>
   <v type="int" >        2      102      157      165      166 </v>
   <v type="int" >        2       94       95      103      158 </v>
   <v type="int" >        2       94      102      103      158 </v>
   <v type="int" >        2      102      103      158      166 </v>
   <v type="int" >        2       95      103      158      159 </v>
   <v type="int" >        2      103      158      159      167 </v>
   <v type="int" >        2      103      158      166      167 </v>
   <v type="int" >        2       95       96      104      159 </v>
   <v type="int" >        2       95      103      104      159 </v>
   <v type="int" >        2      103      104      159      167 </v>
   <v type="int" >        2       96      104      159      160 </v>
   <v type="int" >        2      104      159      160      168 </v>
   <v type="int" >        2      104      159      167      168 </v>
   <v type="int" >        2       89       96       97      160 </v>
   <v type="int" >        2       96       97      104      160 </v>
   <v type="int" >        2       97      104      160      168 </v>
   <v type="int" >        2       89       97      153      160 </v>
   <v type="int" >        2       97      153      160      161 </v>
   <v type="int" >        2       97      160      161      168 </v>
   <v type="int" >        2       97       98      106      161 </v>
   <v type="int" >        2       97      105      106      161 </v>
   <v type="int" >        2      105      106      161      169 </v>
   <v type="int" >        2       98      106      161      162 </v>
   <v type="int" >        2      106      161      162      170 </v>
   <v type="int" >        2      106      161      169      170 </v>
   <v type="int" >        2       98       99      107      162 </v>
   <v type="int" >        2       98      106      107      162 </v>
   <v type="int" >        2      106      107      162      170 </v>
   <v type="int" >        2       99      107      162      163 </v>
   <v type="int" >        2      107      162      163      171 </v>
   <v type="int" >        2      107      162      170      171 </v>
   <v type="int" >        2       99      100      108      163 </v>
   <v type="int" >        2       99      107      108      163 </v>
   <v type="int" >        2      107      108      163      171 </v>
   <v type="int" >        2      100      108      163      164 </v>
   <v type="int" >        2      108      163      164      172 </v>
   <v type="int" >        2      108      163      171      172 </v>
   <v type="int" >        2      100      101      109      164 </v>
   <v type="int" >        2      100      108      109      164 </v>
   <v type="int" >        2      108      109      164      172 </v>
   <v type="int" >        2      101      109      164      165 </v>
   <v type="int" >        2      109      164      165      173 </v>
   <v type="int" >        2      109      164      172      173 </v>
   <v type="int" >        2      101      102      110      165 </v>
   <v type="int" >        2      101      109      110      165 </v>
   <v type="int" >        2      109      110      165      173 </v>
   <v type="int" >        2      102      110      165      166 </v>
   <v type="int" >        2      110      165      166      174 </v>
   <v type="int" >        2      110      165      173      174 </v>
   <v type="int" >        2      102      103      111      166 </v>
   <v type="int" >        2      102      110      111      166 </v>
   <v type="int" >        2      110      111      166      174 </v>
   <v type="int" >        2      103      111      166      167 </v>
   <v type="int" >        2      111      166      167      175 </v>
   <v type="int" >        2      111      166      174      175 </v>
   <v type="int" >        2      103      104      112      167 </v>
   <v type="int" >        2      103      111      112      167 </v>
   <v type="int" >        2      111      112      167      175 </v>
   <v type="int" >        2      104      112      167      168 </v>
   <v type="int" >        2      112      167      168      176 </v>
   <v type="int" >        2      112      167      175      176 </v>
   <v type="int" >        2       97      104      105      168 </v>
   <v type="int" >        2      104      105      112      168 </v>
   <v type="int" >        2      105      112      168      176 </v>
   <v type="int" >        2       97      105      161      168 </v>
   <v type="int" >        2      105      161      168      169 </v>
   <v type="int" >        2      105      168      169      176 </v>
   <v type="int" >        2      105      106      114      169 </v>
   <v type="int" >        2      105      113      114      169 </v>
   <v type="int" >        2      113      114      169      177 </v>
   <v type="int" >        2      106      114      169      170 </v>
   <v type="int" >        2      114      169      170      178 </v>
   <v type="int" >        2      114      169      177      178 </v>
   <v type="int" >        2      106      107      115      170 </v>
   <v type="int" >        2      106      114      115      170 </v>
   <v type="int" >        2      114      115      170      178 </v>
   <v type="int" >        2      107      115      170      171 </v>
   <v type="int" >        2      115      170      171      179 </v>
   <v type="int" >        2      115      170      178      179 </v>
   <v type="int" >        2      107      108      116      171 </v>
   <v type="int" >        2      107      115      116      171 </v>
   <v type="int" >        2      115      116      171      179 </v>
   <v type="int" >        2      108      116      171      172 </v>
   <v type="int" >        2      116      171      172      180 </v>
   <v type="int" >        2      116      171      179      180 </v>
   <v type="int" >        2      108      109      117      172 </v>
   <v type="int" >        2      108      116      117      172 </v>
   <v type="int" >        2      116      117      172      180 </v>
   <v type="int" >        2      109      117      172      173 </v>
   <v type="int" >        2      117      172      173      181 </v>
   <v type="int" >        2      117      172      180      181 </v>
   <v type="int" >        2      109      110      118      173 </v>
   <v type="int" >        2      109      117      118      173 </v>
   <v type="int" >        2      117      118      173      181 </v>
   <v type="int" >        2      110      118      173      174 </v>
   <v type="int" >        2      118      173      174      182 </v>
   <v type="int" >        2      118      173      181      182 </v>
   <v type="int" >        2      110      111      119      174 </v>
   <v type="int" >        2      110      118      119      174 </v>
   <v type="int" >        2      118      119      174      182 </v>
   <v type="int" >        2      111      119      174      175 </v>
   <v type="int" >        2      119      174      175      183 </v>
   <v type="int" >        2      119      174      182      183 </v>
   <v type="int" >        2      111      112      120      175 </v>
   <v type="int" >        2      111      119      120      175 </v>
   <v type="int" >        2      119      120      175      183 </v>
   <v type="int" >        2      112      120      175      176 </v>
   <v type="int" >        2      120      175      176      184 </v>
   <v type="int" >        2      120      175      183      184 </v>
   <v type="int" >        2      105      112      113      176 </v>
   <v type="int" >        2      112      113      120      176 </v>
   <v type="int" >        2      113      120      176      184 </v>
   <v type="int" >        2      105      113      169      176 </v>
   <v type="int" >        2      113      169      176      177 </v>
   <v type="int" >        2      113      176      177      184 </v>
   <v type="int" >        2      113      114      122      177 </v>
   <v type="int" >        2      113      121      122      177 </v>
   <v type="int" >        2      121      122      177      185 </v>
   <v type="int" >        2      114      122      177      178 </v>
   <v type="int" >        2      122      177      178      186 </v>
   <v type="int" >        2      122      177      185      186 </v>
   <v type="int" >        2      114      115      123      178 </v>
   <v type="int" >        2      114      122      123      178 </v>
   <v type="int" >        2      122      123      178      186 </v>
   <v type="int" >        2      115      123      178      179 </v>
   <v type="int" >        2      123      178      179      187 </v>
   <v type="int" >        2      123      178      186      187 </v>
   <v type="int" >        2      115      116      124      179 </v>
   <v type="int" >        2      115      123      124      179 </v>
   <v type="int" >        2      123      124      179      187 </v>
   <v type="int" >        2      116      124      179      180 </v>
   <v type="int" >        2      124      179      180      188 </v>
   <v type="int" >        2      124      179      187      188 </v>
   <v type="int" >        2      116      117      125      180 </v>
   <v type="int" >        2      116      124      125      180 </v>
   <v type="int" >        2      124      125      180      188 </v>
   <v type="int" >        2      117      125      180      181 </v>
   <v type="int" >        2      125      180      181      189 </v>
   <v type="int" >        2      125      180      188      189 </v>
   <v type="int" >        2      117      118      126      181 </v>
   <v type="int" >        2      117      125      126      181 </v>
   <v type="int" >        2      125      126      181      189 </v>
   <v type="int" >        2      118      126      181      182 </v>
   <v type="int" >        2      126      181      182      190 </v>
   <v type="int" >        2      126      181      189      190 </v>
   <v type="int" >        2      118      119      127      182 </v>
   <v type="int" >        2      118      126      127      182 </v>
   <v type="int" >        2      126      127      182      190 </v>
   <v type="int" >        2      119      127      182      183 </v>
   <v type="int" >        2      127      182      183      191 </v>
   <v type="int" >        2      127      182      190      191 </v>
   <v type="int" >        2      119      120      128      183 </v>
   <v type="int" >        2      119      127      128      183 </v>
   <v type="int" >        2      127      128      183      191 </v>
   <v type="int" >        2      120      128      183      184 </v>
   <v type="int" >        2      128      183      184      192 </v>
   <v type="int" >        2      128      183      191      192 </v>
   <v type="int" >        2      113      120      121      184 </v>
   <v type="int" >        2      120      121      128      184 </v>
   <v type="int" >        2      121      128      184      192 </v>
   <v type="int" >        2      113      121      177      184 </v>
   <v type="int" >        2      121      177      184      185 </v>
   <v type="int" >        2      121      184      185      192 </v>
   <v type="int" >        2       66      121      122      185 </v>
   <v type="int" >        2       65       66      121      185 </v>
   <v type="int" >        2       65       66      129      185 </v>
   <v type="int" >        2       66      122      185      186 </v>
   <v type="int" >        2       66      130      185      186 </v>
   <v type="int" >        2       66      129      130      185 </v>
   <v type="int" >        2       67      122      123      186 </v>
   <v type="int" >        2       66       67      122      186 </v>
   <v type="int" >        2       66       67      130      186 </v>
   <v type="int" >        2       67      123      186      187 </v>
   <v type="int" >        2       67      131      186      187 </v>
   <v type="int" >        2       67      130      131      186 </v>
   <v type="int" >        2       68      123      124      187 </v>
   <v type="int" >        2       67       68      123      187 </v>
   <v type="int" >        2       67       68      131      187 </v>
   <v type="int" >        2       68      124      187      188 </v>
   <v type="int" >        2       68      132      187      188 </v>
   <v type="int" >        2       68      131      132      187 </v>
   <v type="int" >        2       69      124      125      188 </v>
   <v type="int" >        2       68       69      124      188 </v>
   <v type="int" >        2       68       69      132      188 </v>
   <v type="int" >        2       69      125      188      189 </v>
   <v type="int" >        2       69      133      188      189 </v>
   <v type="int" >        2       69      132      133      188 </v>
   <v type="int" >        2       70      125      126      189 </v>
   <v type="int" >        2       69       70      125      189 </v>
   <v type="int" >        2       69       70      133      189 </v>
   <v type="int" >        2       70      126      189      190 </v>
   <v type="int" >        2       70      134      189      190 </v>
   <v type="int" >        2       70      133      134      189 </v>
   <v type="int" >        2       71      126      127      190 </v>
   <v type="int" >        2       70       71      126      190 </v>
   <v type="int" >        2       70       71      134      190 </v>
   <v type="int" >        2       71      127      190      191 </v>
   <v type="int" >        2       71      135      190      191 </v>
   <v type="int" >        2       71      134      135      190 </v>
   <v type="int" >        2       72      127      128      191 </v>
   <v type="int" >        2       71       72      127      191 </v>
   <v type="int" >        2       71       72      135      191 </v>
   <v type="int" >        2       72      128      191      192 </v>
   <v type="int" >        2       72      136      191      192 </v>
   <v type="int" >        2       72      135      136      191 </v>
   <v type="int" >        2       65      121      128      192 </v>
   <v type="int" >        2       65       72      128      192 </v>
   <v type="int" >        2       65       72      136      192 </v>
   <v type="int" >        2       65      121      185      192 </v>
   <v type="int" >        2       65      129      185      192 </v>
   <v type="int" >        2       65      129      136      192 </v>
   <v type="int" >        2      129      130      138      193 </v>
   <v type="int" >        2      129      137      138      193 </v>
   <v type="int" >        2      137      138      193      201 </v>
   <v type="int" >        2      130      138      193      194 </v>
   <v type="int" >        2      138      193      194      202 </v>
   <v type="int" >        2      138      193      201      202 </v>
[...]
       <r>  -12.9047    1.0000 </r>
       <r>  -12.8743    1.0000 </r>
       <r>   -2.0438    1.0000 </r>
       <r>   -2.0264    1.0000 </r>
       <r>   -2.0264    1.0000 </r>
       <r>   -1.9444    1.0000 </r>
       <r>   -1.4776    1.0000 </r>
       <r>   -1.3127    1.0000 </r>
       <r>   -1.3127    1.0000 </r>
       <r>   -1.1565    1.0000 </r>
       <r>   -0.8787    1.0000 </r>
       <r>   -0.8461    1.0000 </r>
       <r>   -0.8461    1.0000 </r>
       <r>   -0.7623    1.0000 </r>
       <r>    7.1228    0.0000 </r>
       <r>    7.6005    0.0000 </r>
       <r>    7.6006    0.0000 </r>
       <r>    7.8877    0.0000 </r>
       <r>    9.0776    0.0000 </r>
       <r>    9.0845    0.0000 </r>
       <r>    9.0991    0.0000 </r>
       <r>    9.1435    0.0000 </r>
      </set>
      <set comment="kpoint 254">
       <r>  -12.9924    1.0000 </r>
       <r>  -12.9346    1.0000 </r>
       <r>  -12.8649    1.0000 </r>
       <r>  -12.8483    1.0000 </r>
       <r>   -2.0296    1.0000 </r>
       <r>   -1.9933    1.0000 </r>
       <r>   -1.9512    1.0000 </r>
       <r>   -1.7983    1.0000 </r>
       <r>   -1.6167    1.0000 </r>
       <r>   -1.4541    1.0000 </r>
       <r>   -1.1497    1.0000 </r>
       <r>   -1.0060    1.0000 </r>
       <r>   -0.9792    1.0000 </r>
       <r>   -0.9683    1.0000 </r>
       <r>   -0.8600    1.0000 </r>
       <r>   -0.7386    1.0000 </r>
       <r>    6.7003    0.0000 </r>
       <r>    7.2702    0.0000 </r>
       <r>    8.0845    0.0000 </r>
       <r>    8.1168    0.0000 </r>
       <r>    8.7675    0.0000 </r>
       <r>    8.8139    0.0000 </r>
       <r>    8.8692    0.0000 </r>
       <r>    9.0689    0.0000 </r>
      </set>
      <set comment="kpoint 255">
       <r>  -13.0262    1.0000 </r>
       <r>  -12.9587    1.0000 </r>
       <r>  -12.8356    1.0000 </r>
       <r>  -12.8297    1.0000 </r>
       <r>   -1.9619    1.0000 </r>
       <r>   -1.9025    1.0000 </r>
       <r>   -1.8515    1.0000 </r>
       <r>   -1.6944    1.0000 </r>
       <r>   -1.6257    1.0000 </r>
       <r>   -1.5694    1.0000 </r>
       <r>   -1.1328    1.0000 </r>
       <r>   -1.1073    1.0000 </r>
       <r>   -1.0181    1.0000 </r>
       <r>   -0.8996    1.0000 </r>
       <r>   -0.8859    1.0000 </r>
       <r>   -0.7693    1.0000 </r>
       <r>    6.3771    0.0000 </r>
       <r>    6.9728    0.0000 </r>
       <r>    8.2279    0.0000 </r>
       <r>    8.3068    0.0000 </r>
       <r>    8.5376    0.0000 </r>
       <r>    8.6536    0.0000 </r>
       <r>    8.7143    0.0000 </r>
       <r>    9.0549    0.0000 </r>
      </set>
      <set comment="kpoint 256">
       <r>  -13.0447    1.0000 </r>
       <r>  -12.9721    1.0000 </r>
       <r>  -12.8201    1.0000 </r>
       <r>  -12.8201    1.0000 </r>
       <r>   -1.8644    1.0000 </r>
       <r>   -1.8644    1.0000 </r>
       <r>   -1.7780    1.0000 </r>
       <r>   -1.6566    1.0000 </r>
       <r>   -1.6566    1.0000 </r>
       <r>   -1.4948    1.0000 </r>
       <r>   -1.2483    1.0000 </r>
       <r>   -1.2483    1.0000 </r>
       <r>   -0.9476    1.0000 </r>
       <r>   -0.9314    1.0000 </r>
       <r>   -0.8200    1.0000 </r>
       <r>   -0.8175    1.0000 </r>
       <r>    6.2002    0.0000 </r>
       <r>    6.7980    0.0000 </r>
       <r>    8.1796    0.0000 </r>
       <r>    8.1806    0.0000 </r>
       <r>    8.4297    0.0000 </r>
       <r>    8.7866    0.0000 </r>
       <r>    8.7957    0.0000 </r>
       <r>    8.9358    0.0000 </r>
      </set>
     </set>
    </set>
   </array>
  </eigenvalues>
  <separator name="orbital magnetization" >
   <v name="MAGDIPOLOUT">      0.00000000      0.00000000      0.00000000</v>
  </separator>
  <dos>
   <i name="efermi">     -0.52813317 </i>
   <total>
    <array>
     <dimension dim="1">gridpoints</dimension>
     <dimension dim="2">spin</dimension>
     <field>energy</field>
     <field>total</field>
     <field>integrated</field>
     <set>
      <set comment="spin 1">
       <r>   -15.1918     0.0000     0.0000 </r>
       <r>   -15.0993     0.0000     0.0000 </r>
       <r>   -15.0067     0.0000     0.0000 </r>
       <r>   -14.9142     0.0000     0.0000 </r>
       <r>   -14.8217     0.0000     0.0000 </r>
       <r>   -14.7292     0.0000     0.0000 </r>
       <r>   -14.6367     0.0000     0.0000 </r>
       <r>   -14.5442     0.0000     0.0000 </r>
       <r>   -14.4516     0.0000     0.0000 </r>
       <r>   -14.3591     0.0000     0.0000 </r>
       <r>   -14.2666     0.0000     0.0000 </r>
       <r>   -14.1741     0.0000     0.0000 </r>
       <r>   -14.0816     0.0000     0.0000 </r>
       <r>   -13.9891     0.0000     0.0000 </r>
       <r>   -13.8966     0.0000     0.0000 </r>
       <r>   -13.8040     0.0000     0.0000 </r>
       <r>   -13.7115     0.0000     0.0000 </r>
       <r>   -13.6190     0.0000     0.0000 </r>
       <r>   -13.5265     0.0000     0.0000 </r>
       <r>   -13.4340     0.0000     0.0000 </r>
       <r>   -13.3415     0.0000     0.0000 </r>
       <r>   -13.2489     0.0000     0.0000 </r>
       <r>   -13.1564     3.1409     0.0784 </r>
       <r>   -13.0639     7.6943     0.5694 </r>
       <r>   -12.9714    14.1951     1.5911 </r>
       <r>   -12.8789    48.6589     4.2799 </r>
       <r>   -12.7864     0.0000     8.0000 </r>
       <r>   -12.6939     0.0000     8.0000 </r>
       <r>   -12.6013     0.0000     8.0000 </r>
       <r>   -12.5088     0.0000     8.0000 </r>
       <r>   -12.4163     0.0000     8.0000 </r>
       <r>   -12.3238     0.0000     8.0000 </r>
       <r>   -12.2313     0.0000     8.0000 </r>
       <r>   -12.1388     0.0000     8.0000 </r>
       <r>   -12.0463     0.0000     8.0000 </r>
       <r>   -11.9537     0.0000     8.0000 </r>
       <r>   -11.8612     0.0000     8.0000 </r>
       <r>   -11.7687     0.0000     8.0000 </r>
       <r>   -11.6762     0.0000     8.0000 </r>
       <r>   -11.5837     0.0000     8.0000 </r>
       <r>   -11.4912     0.0000     8.0000 </r>
       <r>   -11.3986     0.0000     8.0000 </r>
       <r>   -11.3061     0.0000     8.0000 </r>
       <r>   -11.2136     0.0000     8.0000 </r>
       <r>   -11.1211     0.0000     8.0000 </r>
       <r>   -11.0286     0.0000     8.0000 </r>
       <r>   -10.9361     0.0000     8.0000 </r>
       <r>   -10.8436     0.0000     8.0000 </r>
       <r>   -10.7510     0.0000     8.0000 </r>
       <r>   -10.6585     0.0000     8.0000 </r>
       <r>   -10.5660     0.0000     8.0000 </r>
       <r>   -10.4735     0.0000     8.0000 </r>
       <r>   -10.3810     0.0000     8.0000 </r>
       <r>   -10.2885     0.0000     8.0000 </r>
       <r>   -10.1960     0.0000     8.0000 </r>
       <r>   -10.1034     0.0000     8.0000 </r>
       <r>   -10.0109     0.0000     8.0000 </r>
       <r>    -9.9184     0.0000     8.0000 </r>
       <r>    -9.8259     0.0000     8.0000 </r>
       <r>    -9.7334     0.0000     8.0000 </r>
       <r>    -9.6409     0.0000     8.0000 </r>
       <r>    -9.5483     0.0000     8.0000 </r>
       <r>    -9.4558     0.0000     8.0000 </r>
       <r>    -9.3633     0.0000     8.0000 </r>
       <r>    -9.2708     0.0000     8.0000 </r>
       <r>    -9.1783     0.0000     8.0000 </r>
       <r>    -9.0858     0.0000     8.0000 </r>
       <r>    -8.9933     0.0000     8.0000 </r>
       <r>    -8.9007     0.0000     8.0000 </r>
       <r>    -8.8082     0.0000     8.0000 </r>
       <r>    -8.7157     0.0000     8.0000 </r>
       <r>    -8.6232     0.0000     8.0000 </r>
       <r>    -8.5307     0.0000     8.0000 </r>
       <r>    -8.4382     0.0000     8.0000 </r>
       <r>    -8.3457     0.0000     8.0000 </r>
       <r>    -8.2531     0.0000     8.0000 </r>
       <r>    -8.1606     0.0000     8.0000 </r>
       <r>    -8.0681     0.0000     8.0000 </r>
       <r>    -7.9756     0.0000     8.0000 </r>
       <r>    -7.8831     0.0000     8.0000 </r>
       <r>    -7.7906     0.0000     8.0000 </r>
       <r>    -7.6980     0.0000     8.0000 </r>
       <r>    -7.6055     0.0000     8.0000 </r>
       <r>    -7.5130     0.0000     8.0000 </r>
       <r>    -7.4205     0.0000     8.0000 </r>
       <r>    -7.3280     0.0000     8.0000 </r>
       <r>    -7.2355     0.0000     8.0000 </r>
       <r>    -7.1430     0.0000     8.0000 </r>
       <r>    -7.0504     0.0000     8.0000 </r>
       <r>    -6.9579     0.0000     8.0000 </r>
       <r>    -6.8654     0.0000     8.0000 </r>
       <r>    -6.7729     0.0000     8.0000 </r>
       <r>    -6.6804     0.0000     8.0000 </r>
       <r>    -6.5879     0.0000     8.0000 </r>
       <r>    -6.4954     0.0000     8.0000 </r>
       <r>    -6.4028     0.0000     8.0000 </r>
       <r>    -6.3103     0.0000     8.0000 </r>
       <r>    -6.2178     0.0000     8.0000 </r>
       <r>    -6.1253     0.0000     8.0000 </r>
       <r>    -6.0328     0.0000     8.0000 </r>
       <r>    -5.9403     0.0000     8.0000 </r>
       <r>    -5.8477     0.0000     8.0000 </r>
       <r>    -5.7552     0.0000     8.0000 </r>
       <r>    -5.6627     0.0000     8.0000 </r>
       <r>    -5.5702     0.0000     8.0000 </r>
       <r>    -5.4777     0.0000     8.0000 </r>
       <r>    -5.3852     0.0000     8.0000 </r>
       <r>    -5.2927     0.0000     8.0000 </r>
       <r>    -5.2001     0.0000     8.0000 </r>
       <r>    -5.1076     0.0000     8.0000 </r>
       <r>    -5.0151     0.0000     8.0000 </r>
       <r>    -4.9226     0.0000     8.0000 </r>
       <r>    -4.8301     0.0000     8.0000 </r>
       <r>    -4.7376     0.0000     8.0000 </r>
       <r>    -4.6451     0.0000     8.0000 </r>
       <r>    -4.5525     0.0000     8.0000 </r>
       <r>    -4.4600     0.0000     8.0000 </r>
       <r>    -4.3675     0.0000     8.0000 </r>
       <r>    -4.2750     0.0000     8.0000 </r>
       <r>    -4.1825     0.0000     8.0000 </r>
       <r>    -4.0900     0.0000     8.0000 </r>
       <r>    -3.9974     0.0000     8.0000 </r>
       <r>    -3.9049     0.0000     8.0000 </r>
       <r>    -3.8124     0.0000     8.0000 </r>
       <r>    -3.7199     0.0000     8.0000 </r>
       <r>    -3.6274     0.0000     8.0000 </r>
       <r>    -3.5349     0.0000     8.0000 </r>
       <r>    -3.4424     0.0000     8.0000 </r>
       <r>    -3.3498     0.0000     8.0000 </r>
       <r>    -3.2573     0.0000     8.0000 </r>
       <r>    -3.1648     0.0000     8.0000 </r>
       <r>    -3.0723     0.0000     8.0000 </r>
       <r>    -2.9798     0.0000     8.0000 </r>
       <r>    -2.8873     0.0000     8.0000 </r>
       <r>    -2.7948     0.0000     8.0000 </r>
       <r>    -2.7022     0.0000     8.0000 </r>
       <r>    -2.6097     0.0000     8.0000 </r>
       <r>    -2.5172     0.0000     8.0000 </r>
       <r>    -2.4247     1.0924     8.0221 </r>
       <r>    -2.3322     4.0420     8.2696 </r>
       <r>    -2.2397     5.9161     8.7145 </r>
       <r>    -2.1471    13.1909     9.5448 </r>
       <r>    -2.0546    24.7362    11.3782 </r>
       <r>    -1.9621    15.0806    13.4674 </r>
       <r>    -1.8696     6.9340    14.4336 </r>
       <r>    -1.7771     3.1366    14.8588 </r>
       <r>    -1.6846     5.1859    15.2044 </r>
       <r>    -1.5921     6.5577    15.8095 </r>
       <r>    -1.4995    10.0758    16.5815 </r>
       <r>    -1.4070    10.8087    17.5492 </r>
       <r>    -1.3145     9.9803    18.5068 </r>
       <r>    -1.2220    13.5056    19.5289 </r>
       <r>    -1.1295    22.7337    21.4985 </r>
       <r>    -1.0370    22.3939    23.3594 </r>
       <r>    -0.9445    23.2544    25.9252 </r>
       <r>    -0.8519    36.3207    28.1682 </r>
       <r>    -0.7594    25.7235    30.2103 </r>
       <r>    -0.6669     9.5197    31.4540 </r>
       <r>    -0.5744     1.3991    31.9878 </r>
       <r>    -0.4819     0.0000    32.0000 </r>
       <r>    -0.3894     0.0000    32.0000 </r>
       <r>    -0.2968     0.0000    32.0000 </r>
       <r>    -0.2043     0.0000    32.0000 </r>
       <r>    -0.1118     0.0000    32.0000 </r>
       <r>    -0.0193     0.0000    32.0000 </r>
       <r>     0.0732     0.0000    32.0000 </r>
       <r>     0.1657     0.0000    32.0000 </r>
       <r>     0.2582     0.0000    32.0000 </r>
       <r>     0.3508     0.0000    32.0000 </r>
       <r>     0.4433     0.0000    32.0000 </r>
       <r>     0.5358     0.0000    32.0000 </r>
       <r>     0.6283     0.0000    32.0000 </r>
       <r>     0.7208     0.0000    32.0000 </r>
       <r>     0.8133     0.0000    32.0000 </r>
       <r>     0.9058     0.0000    32.0000 </r>
       <r>     0.9984     0.0000    32.0000 </r>
       <r>     1.0909     0.0000    32.0000 </r>
       <r>     1.1834     0.0000    32.0000 </r>
       <r>     1.2759     0.0000    32.0000 </r>
       <r>     1.3684     0.0000    32.0000 </r>
       <r>     1.4609     0.0000    32.0000 </r>
       <r>     1.5535     0.0000    32.0000 </r>
       <r>     1.6460     0.0000    32.0000 </r>
       <r>     1.7385     0.0000    32.0000 </r>
       <r>     1.8310     0.0000    32.0000 </r>
       <r>     1.9235     0.0000    32.0000 </r>
       <r>     2.0160     0.0000    32.0000 </r>
       <r>     2.1085     0.0000    32.0000 </r>
       <r>     2.2011     0.0000    32.0000 </r>
       <r>     2.2936     0.0000    32.0000 </r>
       <r>     2.3861     0.0000    32.0000 </r>
       <r>     2.4786     0.0000    32.0000 </r>
       <r>     2.5711     0.0000    32.0000 </r>
       <r>     2.6636     0.0000    32.0000 </r>
       <r>     2.7562     0.0000    32.0000 </r>
       <r>     2.8487     0.0000    32.0000 </r>
       <r>     2.9412     0.0000    32.0000 </r>
       <r>     3.0337     0.0000    32.0000 </r>
       <r>     3.1262     0.0000    32.0000 </r>
       <r>     3.2187     0.0000    32.0000 </r>
       <r>     3.3112     0.0000    32.0000 </r>
       <r>     3.4038     0.0000    32.0000 </r>
       <r>     3.4963     0.0000    32.0000 </r>
       <r>     3.5888     0.0000    32.0000 </r>
       <r>     3.6813     0.0000    32.0000 </r>
       <r>     3.7738     0.0000    32.0000 </r>
       <r>     3.8663     0.0000    32.0000 </r>
       <r>     3.9588     0.0000    32.0000 </r>
       <r>     4.0514     0.0000    32.0000 </r>
       <r>     4.1439     0.0000    32.0000 </r>
       <r>     4.2364     0.0000    32.0000 </r>
       <r>     4.3289     0.0000    32.0000 </r>
       <r>     4.4214     0.0000    32.0000 </r>
       <r>     4.5139     0.0000    32.0000 </r>
       <r>     4.6065     0.0000    32.0000 </r>
       <r>     4.6990     0.0961    32.0082 </r>
       <r>     4.7915     0.1469    32.0194 </r>
       <r>     4.8840     0.2062    32.0357 </r>
       <r>     4.9765     0.2550    32.0578 </r>
       <r>     5.0690     0.2954    32.0833 </r>
       <r>     5.1615     0.3326    32.1123 </r>
       <r>     5.2541     0.3666    32.1447 </r>
       <r>     5.3466     0.4132    32.1807 </r>
       <r>     5.4391     0.4695    32.2214 </r>
       <r>     5.5316     0.5349    32.2678 </r>
       <r>     5.6241     0.5813    32.3193 </r>
       <r>     5.7166     0.6274    32.3753 </r>
       <r>     5.8091     0.6907    32.4360 </r>
       <r>     5.9017     0.7638    32.5032 </r>
       <r>     5.9942     0.8380    32.5773 </r>
       <r>     6.0867     0.9151    32.6584 </r>
       <r>     6.1792     0.9986    32.7468 </r>
       <r>     6.2717     1.3937    32.8745 </r>
       <r>     6.3642     1.5627    33.0113 </r>
       <r>     6.4568     1.5248    33.1560 </r>
       <r>     6.5493     1.6912    33.3045 </r>
       <r>     6.6418     3.5204    33.4779 </r>
       <r>     6.7343     1.4019    33.7238 </r>
       <r>     6.8268     1.8835    33.8800 </r>
       <r>     6.9193     2.4037    34.0759 </r>
       <r>     7.0118     3.4767    34.3590 </r>
       <r>     7.1044     5.1114    34.7836 </r>
       <r>     7.1969     4.9363    35.2633 </r>
       <r>     7.2894     5.3651    35.7402 </r>
       <r>     7.3819     5.2458    36.2506 </r>
       <r>     7.4744     4.8350    36.7179 </r>
       <r>     7.5669     4.5344    37.1470 </r>
       <r>     7.6594     5.1343    37.6237 </r>
       <r>     7.7520     6.1112    38.1618 </r>
       <r>     7.8445     5.5584    38.6849 </r>
       <r>     7.9370     5.5937    39.2169 </r>
       <r>     8.0295     5.1808    39.7137 </r>
       <r>     8.1220     5.1286    40.1900 </r>
       <r>     8.2145     5.7028    40.7115 </r>
       <r>     8.3071     2.6787    41.0703 </r>
       <r>     8.3996     3.1459    41.3293 </r>
       <r>     8.4921     4.1228    41.6670 </r>
       <r>     8.5846     4.9512    42.0846 </r>
       <r>     8.6771     7.5195    42.6240 </r>
       <r>     8.7696     7.4383    43.3534 </r>
       <r>     8.8621     4.8289    43.8955 </r>
       <r>     8.9547     4.2799    44.3124 </r>
       <r>     9.0472     4.9815    44.7319 </r>
       <r>     9.1397     6.6777    45.3735 </r>
       <r>     9.2322     5.6274    45.9291 </r>
       <r>     9.3247     4.8691    46.4052 </r>
       <r>     9.4172     4.4202    46.8322 </r>
       <r>     9.5097     2.8997    47.1736 </r>
       <r>     9.6023     2.2238    47.4080 </r>
       <r>     9.6948     1.7087    47.5906 </r>
       <r>     9.7873     1.2192    47.7253 </r>
       <r>     9.8798     1.3820    47.8277 </r>
       <r>     9.9723     0.3813    47.8737 </r>
       <r>    10.0648     0.3307    47.9066 </r>
       <r>    10.1574     0.2602    47.9341 </r>
       <r>    10.2499     0.2066    47.9551 </r>
       <r>    10.3424     0.1576    47.9719 </r>
       <r>    10.4349     0.1155    47.9845 </r>
       <r>    10.5274     0.0800    47.9935 </r>
       <r>    10.6199     0.0000    48.0000 </r>
       <r>    10.7124     0.0000    48.0000 </r>
       <r>    10.8050     0.0000    48.0000 </r>
       <r>    10.8975     0.0000    48.0000 </r>
       <r>    10.9900     0.0000    48.0000 </r>
       <r>    11.0825     0.0000    48.0000 </r>
       <r>    11.1750     0.0000    48.0000 </r>
       <r>    11.2675     0.0000    48.0000 </r>
       <r>    11.3600     0.0000    48.0000 </r>
       <r>    11.4526     0.0000    48.0000 </r>
       <r>    11.5451     0.0000    48.0000 </r>
       <r>    11.6376     0.0000    48.0000 </r>
       <r>    11.7301     0.0000    48.0000 </r>
       <r>    11.8226     0.0000    48.0000 </r>
       <r>    11.9151     0.0000    48.0000 </r>
       <r>    12.0077     0.0000    48.0000 </r>
       <r>    12.1002     0.0000    48.0000 </r>
       <r>    12.1927     0.0000    48.0000 </r>
       <r>    12.2852     0.0000    48.0000 </r>
       <r>    12.3777     0.0000    48.0000 </r>
       <r>    12.4702     0.0000    48.0000 </r>
       <r>    12.5627     0.0000    48.0000 </r>
      </set>
     </set>
    </array>
   </total>
  </dos>
 </calculation>
 <structure name="finalpos" >
  <crystal>
   <varray name="basis" >
    <v>       5.65099939       0.00000000       0.00000000 </v>
    <v>       0.00000000       5.65099939       0.00000000 </v>
    <v>       0.00000000       0.00000000       5.65099939 </v>
   </varray>
   <i name="volume">    180.45785069 </i>
   <varray name="rec_basis" >
    <v>       0.17695985       0.00000000       0.00000000 </v>
    <v>       0.00000000       0.17695985       0.00000000 </v>
    <v>       0.00000000       0.00000000       0.17695985 </v>
   </varray>
  </crystal>
  <varray name="positions" >
   <v>       0.50000000       0.00000000       0.50000000 </v>
   <v>       0.00000000       0.50000000       0.50000000 </v>
   <v>       0.50000000       0.50000000       0.00000000 </v>
   <v>       0.00000000       0.00000000       0.00000000 </v>
   <v>       0.50000000       0.50000000       0.50000000 </v>
   <v>       0.00000000       0.00000000       0.50000000 </v>
   <v>       0.50000000       0.00000000       0.00000000 </v>
   <v>       0.00000000       0.50000000       0.00000000 </v>
  </varray>
 </structure>
</modeling>
