<?xml version="1.0" encoding="ISO-8859-1"?>
<modeling>
 <generator>
  <i name="program" type="string">vasp </i>
  <i name="version" type="string">5.4.1  </i>
  <i name="subversion" type="string">24Jun15 (build Apr 19 2016 10:17:20) complex                          parallel </i>
  <i name="platform" type="string">IFC91_ompi </i>
  <i name="date" type="string">2016 08 03 </i>
  <i name="time" type="string">12:29:22 </i>
 </generator>
 <incar>
  <i type="string" name="PREC">accurate</i>
  <i type="int" name="ISPIN">     1</i>
  <i type="int" name="ICHARG">    11</i>
  <i type="int" name="NELM">   800</i>
  <i type="int" name="IBRION">    -1</i>
  <i name="EDIFF">      0.00000000</i>
  <i type="int" name="NSW">     0</i>
  <i type="int" name="ISIF">     3</i>
  <i type="int" name="ISYM">     0</i>
  <i type="int" name="NEDOS">  1000</i>
  <i name="EMIN">    -20.00000000</i>
  <i name="EMAX">     10.00000000</i>
  <i type="int" name="ISMEAR">    -1</i>
  <i name="SIGMA">      0.10000000</i>
  <i type="int" name="NWRITE">     3</i>
  <i type="logical" name="LWAVE"> F  </i>
  <i type="logical" name="LCHARG"> T  </i>
  <i type="logical" name="LVTOT"> T  </i>
  <i type="logical" name="LORBIT"> F  </i>
  <v type="int" name="KPOINT_BSE">    -1     0     0     0</v>
  <i type="int" name="NELM">   800</i>
 </incar>
 <kpoints>
  <generation param="listgenerated">
   <i name="divisions" type="int">      20 </i>
   <v>       0.00000000       0.00000000       0.00000000 </v>
   <v>       0.00000000       0.00000000       0.50000000 </v>
   <v>      -0.21224571       0.21224571       0.50000000 </v>
   <v>      -0.35612285       0.35612285       0.35612285 </v>
   <v>       0.00000000       0.00000000       0.00000000 </v>
   <v>       0.50000000       0.50000000      -0.50000000 </v>
   <v>       0.35612285       0.64387715      -0.35612285 </v>
   <v>       0.00000000       0.50000000       0.00000000 </v>
   <v>       0.25000000       0.25000000       0.25000000 </v>
   <v>       0.50000000       0.50000000      -0.21224571 </v>
   <v>       0.00000000       0.00000000       0.50000000 </v>
   <v>       0.25000000       0.25000000       0.25000000 </v>
  </generation>
  <varray name="kpointlist" >
   <v>       0.00000000       0.00000000       0.00000000 </v>
   <v>       0.00000000       0.00000000       0.02631579 </v>
   <v>       0.00000000       0.00000000       0.05263158 </v>
   <v>       0.00000000       0.00000000       0.07894737 </v>
   <v>       0.00000000       0.00000000       0.10526316 </v>
   <v>       0.00000000       0.00000000       0.13157895 </v>
   <v>       0.00000000       0.00000000       0.15789474 </v>
   <v>       0.00000000       0.00000000       0.18421053 </v>
   <v>       0.00000000       0.00000000       0.21052632 </v>
   <v>       0.00000000       0.00000000       0.23684211 </v>
   <v>       0.00000000       0.00000000       0.26315789 </v>
   <v>       0.00000000       0.00000000       0.28947368 </v>
   <v>       0.00000000       0.00000000       0.31578947 </v>
   <v>       0.00000000       0.00000000       0.34210526 </v>
   <v>       0.00000000       0.00000000       0.36842105 </v>
   <v>       0.00000000       0.00000000       0.39473684 </v>
   <v>       0.00000000       0.00000000       0.42105263 </v>
   <v>       0.00000000       0.00000000       0.44736842 </v>
   <v>       0.00000000       0.00000000       0.47368421 </v>
   <v>       0.00000000       0.00000000       0.50000000 </v>
   <v>       0.00000000       0.00000000       0.50000000 </v>
   <v>      -0.01117083       0.01117083       0.50000000 </v>
   <v>      -0.02234165       0.02234165       0.50000000 </v>
   <v>      -0.03351248       0.03351248       0.50000000 </v>
   <v>      -0.04468331       0.04468331       0.50000000 </v>
   <v>      -0.05585413       0.05585413       0.50000000 </v>
   <v>      -0.06702496       0.06702496       0.50000000 </v>
   <v>      -0.07819579       0.07819579       0.50000000 </v>
   <v>      -0.08936661       0.08936661       0.50000000 </v>
   <v>      -0.10053744       0.10053744       0.50000000 </v>
   <v>      -0.11170827       0.11170827       0.50000000 </v>
   <v>      -0.12287909       0.12287909       0.50000000 </v>
   <v>      -0.13404992       0.13404992       0.50000000 </v>
   <v>      -0.14522075       0.14522075       0.50000000 </v>
   <v>      -0.15639157       0.15639157       0.50000000 </v>
   <v>      -0.16756240       0.16756240       0.50000000 </v>
   <v>      -0.17873323       0.17873323       0.50000000 </v>
   <v>      -0.18990405       0.18990405       0.50000000 </v>
   <v>      -0.20107488       0.20107488       0.50000000 </v>
   <v>      -0.21224571       0.21224571       0.50000000 </v>
   <v>      -0.21224571       0.21224571       0.50000000 </v>
   <v>      -0.21981819       0.21981819       0.49242752 </v>
   <v>      -0.22739067       0.22739067       0.48485504 </v>
   <v>      -0.23496315       0.23496315       0.47728256 </v>
   <v>      -0.24253563       0.24253563       0.46971007 </v>
   <v>      -0.25010811       0.25010811       0.46213759 </v>
   <v>      -0.25768060       0.25768060       0.45456511 </v>
   <v>      -0.26525308       0.26525308       0.44699263 </v>
   <v>      -0.27282556       0.27282556       0.43942015 </v>
   <v>      -0.28039804       0.28039804       0.43184767 </v>
   <v>      -0.28797052       0.28797052       0.42427519 </v>
   <v>      -0.29554300       0.29554300       0.41670270 </v>
   <v>      -0.30311548       0.30311548       0.40913022 </v>
   <v>      -0.31068797       0.31068797       0.40155774 </v>
   <v>      -0.31826045       0.31826045       0.39398526 </v>
   <v>      -0.32583293       0.32583293       0.38641278 </v>
   <v>      -0.33340541       0.33340541       0.37884030 </v>
   <v>      -0.34097789       0.34097789       0.37126782 </v>
   <v>      -0.34855037       0.34855037       0.36369533 </v>
   <v>      -0.35612285       0.35612285       0.35612285 </v>
   <v>      -0.35612285       0.35612285       0.35612285 </v>
   <v>      -0.33737955       0.33737955       0.33737955 </v>
   <v>      -0.31863624       0.31863624       0.31863624 </v>
   <v>      -0.29989293       0.29989293       0.29989293 </v>
   <v>      -0.28114962       0.28114962       0.28114962 </v>
   <v>      -0.26240631       0.26240631       0.26240631 </v>
   <v>      -0.24366300       0.24366300       0.24366300 </v>
   <v>      -0.22491970       0.22491970       0.22491970 </v>
   <v>      -0.20617639       0.20617639       0.20617639 </v>
   <v>      -0.18743308       0.18743308       0.18743308 </v>
   <v>      -0.16868977       0.16868977       0.16868977 </v>
   <v>      -0.14994646       0.14994646       0.14994646 </v>
   <v>      -0.13120316       0.13120316       0.13120316 </v>
   <v>      -0.11245985       0.11245985       0.11245985 </v>
   <v>      -0.09371654       0.09371654       0.09371654 </v>
   <v>      -0.07497323       0.07497323       0.07497323 </v>
   <v>      -0.05622992       0.05622992       0.05622992 </v>
   <v>      -0.03748662       0.03748662       0.03748662 </v>
   <v>      -0.01874331       0.01874331       0.01874331 </v>
   <v>       0.00000000       0.00000000       0.00000000 </v>
   <v>       0.00000000       0.00000000       0.00000000 </v>
   <v>       0.02631579       0.02631579      -0.02631579 </v>
   <v>       0.05263158       0.05263158      -0.05263158 </v>
   <v>       0.07894737       0.07894737      -0.07894737 </v>
   <v>       0.10526316       0.10526316      -0.10526316 </v>
   <v>       0.13157895       0.13157895      -0.13157895 </v>
   <v>       0.15789474       0.15789474      -0.15789474 </v>
   <v>       0.18421053       0.18421053      -0.18421053 </v>
   <v>       0.21052632       0.21052632      -0.21052632 </v>
   <v>       0.23684211       0.23684211      -0.23684211 </v>
   <v>       0.26315789       0.26315789      -0.26315789 </v>
   <v>       0.28947368       0.28947368      -0.28947368 </v>
   <v>       0.31578947       0.31578947      -0.31578947 </v>
   <v>       0.34210526       0.34210526      -0.34210526 </v>
   <v>       0.36842105       0.36842105      -0.36842105 </v>
   <v>       0.39473684       0.39473684      -0.39473684 </v>
   <v>       0.42105263       0.42105263      -0.42105263 </v>
   <v>       0.44736842       0.44736842      -0.44736842 </v>
   <v>       0.47368421       0.47368421      -0.47368421 </v>
   <v>       0.50000000       0.50000000      -0.50000000 </v>
   <v>       0.50000000       0.50000000      -0.50000000 </v>
   <v>       0.49242752       0.50757248      -0.49242752 </v>
   <v>       0.48485504       0.51514496      -0.48485504 </v>
   <v>       0.47728256       0.52271744      -0.47728256 </v>
   <v>       0.46971007       0.53028993      -0.46971007 </v>
   <v>       0.46213759       0.53786241      -0.46213759 </v>
   <v>       0.45456511       0.54543489      -0.45456511 </v>
   <v>       0.44699263       0.55300737      -0.44699263 </v>
   <v>       0.43942015       0.56057985      -0.43942015 </v>
   <v>       0.43184767       0.56815233      -0.43184767 </v>
   <v>       0.42427519       0.57572481      -0.42427519 </v>
   <v>       0.41670270       0.58329730      -0.41670270 </v>
   <v>       0.40913022       0.59086978      -0.40913022 </v>
   <v>       0.40155774       0.59844226      -0.40155774 </v>
   <v>       0.39398526       0.60601474      -0.39398526 </v>
   <v>       0.38641278       0.61358722      -0.38641278 </v>
   <v>       0.37884030       0.62115970      -0.37884030 </v>
   <v>       0.37126782       0.62873218      -0.37126782 </v>
   <v>       0.36369533       0.63630467      -0.36369533 </v>
   <v>       0.35612285       0.64387715      -0.35612285 </v>
   <v>       0.35612285       0.64387715      -0.35612285 </v>
   <v>       0.33737955       0.63630467      -0.33737955 </v>
   <v>       0.31863624       0.62873218      -0.31863624 </v>
   <v>       0.29989293       0.62115970      -0.29989293 </v>
   <v>       0.28114962       0.61358722      -0.28114962 </v>
   <v>       0.26240631       0.60601474      -0.26240631 </v>
   <v>       0.24366300       0.59844226      -0.24366300 </v>
   <v>       0.22491970       0.59086978      -0.22491970 </v>
   <v>       0.20617639       0.58329730      -0.20617639 </v>
   <v>       0.18743308       0.57572481      -0.18743308 </v>
   <v>       0.16868977       0.56815233      -0.16868977 </v>
   <v>       0.14994646       0.56057985      -0.14994646 </v>
   <v>       0.13120316       0.55300737      -0.13120316 </v>
   <v>       0.11245985       0.54543489      -0.11245985 </v>
   <v>       0.09371654       0.53786241      -0.09371654 </v>
   <v>       0.07497323       0.53028993      -0.07497323 </v>
   <v>       0.05622992       0.52271744      -0.05622992 </v>
   <v>       0.03748662       0.51514496      -0.03748662 </v>
   <v>       0.01874331       0.50757248      -0.01874331 </v>
   <v>       0.00000000       0.50000000       0.00000000 </v>
   <v>       0.00000000       0.50000000       0.00000000 </v>
   <v>       0.01315789       0.48684211       0.01315789 </v>
   <v>       0.02631579       0.47368421       0.02631579 </v>
   <v>       0.03947368       0.46052632       0.03947368 </v>
   <v>       0.05263158       0.44736842       0.05263158 </v>
   <v>       0.06578947       0.43421053       0.06578947 </v>
   <v>       0.07894737       0.42105263       0.07894737 </v>
   <v>       0.09210526       0.40789474       0.09210526 </v>
   <v>       0.10526316       0.39473684       0.10526316 </v>
   <v>       0.11842105       0.38157895       0.11842105 </v>
   <v>       0.13157895       0.36842105       0.13157895 </v>
   <v>       0.14473684       0.35526316       0.14473684 </v>
   <v>       0.15789474       0.34210526       0.15789474 </v>
   <v>       0.17105263       0.32894737       0.17105263 </v>
   <v>       0.18421053       0.31578947       0.18421053 </v>
   <v>       0.19736842       0.30263158       0.19736842 </v>
   <v>       0.21052632       0.28947368       0.21052632 </v>
   <v>       0.22368421       0.27631579       0.22368421 </v>
   <v>       0.23684211       0.26315789       0.23684211 </v>
   <v>       0.25000000       0.25000000       0.25000000 </v>
   <v>       0.25000000       0.25000000       0.25000000 </v>
   <v>       0.26315789       0.26315789       0.22567128 </v>
   <v>       0.27631579       0.27631579       0.20134256 </v>
   <v>       0.28947368       0.28947368       0.17701384 </v>
   <v>       0.30263158       0.30263158       0.15268511 </v>
   <v>       0.31578947       0.31578947       0.12835639 </v>
   <v>       0.32894737       0.32894737       0.10402767 </v>
   <v>       0.34210526       0.34210526       0.07969895 </v>
   <v>       0.35526316       0.35526316       0.05537023 </v>
   <v>       0.36842105       0.36842105       0.03104151 </v>
   <v>       0.38157895       0.38157895       0.00671279 </v>
   <v>       0.39473684       0.39473684      -0.01761594 </v>
   <v>       0.40789474       0.40789474      -0.04194466 </v>
   <v>       0.42105263       0.42105263      -0.06627338 </v>
   <v>       0.43421053       0.43421053      -0.09060210 </v>
   <v>       0.44736842       0.44736842      -0.11493082 </v>
   <v>       0.46052632       0.46052632      -0.13925954 </v>
   <v>       0.47368421       0.47368421      -0.16358826 </v>
   <v>       0.48684211       0.48684211      -0.18791699 </v>
   <v>       0.50000000       0.50000000      -0.21224571 </v>
   <v>       0.50000000       0.50000000      -0.21224571 </v>
   <v>       0.50000000       0.50000000      -0.22739067 </v>
   <v>       0.50000000       0.50000000      -0.24253563 </v>
   <v>       0.50000000       0.50000000      -0.25768060 </v>
   <v>       0.50000000       0.50000000      -0.27282556 </v>
   <v>       0.50000000       0.50000000      -0.28797052 </v>
   <v>       0.50000000       0.50000000      -0.30311548 </v>
   <v>       0.50000000       0.50000000      -0.31826045 </v>
   <v>       0.50000000       0.50000000      -0.33340541 </v>
   <v>       0.50000000       0.50000000      -0.34855037 </v>
   <v>       0.50000000       0.50000000      -0.36369533 </v>
   <v>       0.50000000       0.50000000      -0.37884030 </v>
   <v>       0.50000000       0.50000000      -0.39398526 </v>
   <v>       0.50000000       0.50000000      -0.40913022 </v>
   <v>       0.50000000       0.50000000      -0.42427519 </v>
   <v>       0.50000000       0.50000000      -0.43942015 </v>
   <v>       0.50000000       0.50000000      -0.45456511 </v>
   <v>       0.50000000       0.50000000      -0.46971007 </v>
   <v>       0.50000000       0.50000000      -0.48485504 </v>
   <v>       0.50000000       0.50000000      -0.50000000 </v>
   <v>       0.00000000       0.00000000       0.50000000 </v>
   <v>       0.01315789       0.01315789       0.48684211 </v>
   <v>       0.02631579       0.02631579       0.47368421 </v>
   <v>       0.03947368       0.03947368       0.46052632 </v>
   <v>       0.05263158       0.05263158       0.44736842 </v>
   <v>       0.06578947       0.06578947       0.43421053 </v>
   <v>       0.07894737       0.07894737       0.42105263 </v>
   <v>       0.09210526       0.09210526       0.40789474 </v>
   <v>       0.10526316       0.10526316       0.39473684 </v>
   <v>       0.11842105       0.11842105       0.38157895 </v>
   <v>       0.13157895       0.13157895       0.36842105 </v>
   <v>       0.14473684       0.14473684       0.35526316 </v>
   <v>       0.15789474       0.15789474       0.34210526 </v>
   <v>       0.17105263       0.17105263       0.32894737 </v>
   <v>       0.18421053       0.18421053       0.31578947 </v>
   <v>       0.19736842       0.19736842       0.30263158 </v>
   <v>       0.21052632       0.21052632       0.28947368 </v>
   <v>       0.22368421       0.22368421       0.27631579 </v>
   <v>       0.23684211       0.23684211       0.26315789 </v>
   <v>       0.25000000       0.25000000       0.25000000 </v>
  </varray>
  <varray name="weights" >
   <v>       0.00454545 </v>
   <v>       0.00454545 </v>
   <v>       0.00454545 </v>
   <v>       0.00454545 </v>
   <v>       0.00454545 </v>
   <v>       0.00454545 </v>
   <v>       0.00454545 </v>
   <v>       0.00454545 </v>
   <v>       0.00454545 </v>
   <v>       0.00454545 </v>
   <v>       0.00454545 </v>
   <v>       0.00454545 </v>
   <v>       0.00454545 </v>
   <v>       0.00454545 </v>
   <v>       0.00454545 </v>
   <v>       0.00454545 </v>
   <v>       0.00454545 </v>
   <v>       0.00454545 </v>
   <v>       0.00454545 </v>
   <v>       0.00454545 </v>
   <v>       0.00454545 </v>
   <v>       0.00454545 </v>
   <v>       0.00454545 </v>
   <v>       0.00454545 </v>
   <v>       0.00454545 </v>
   <v>       0.00454545 </v>
   <v>       0.00454545 </v>
   <v>       0.00454545 </v>
   <v>       0.00454545 </v>
   <v>       0.00454545 </v>
   <v>       0.00454545 </v>
   <v>       0.00454545 </v>
   <v>       0.00454545 </v>
   <v>       0.00454545 </v>
   <v>       0.00454545 </v>
   <v>       0.00454545 </v>
   <v>       0.00454545 </v>
   <v>       0.00454545 </v>
   <v>       0.00454545 </v>
   <v>       0.00454545 </v>
   <v>       0.00454545 </v>
   <v>       0.00454545 </v>
   <v>       0.00454545 </v>
   <v>       0.00454545 </v>
   <v>       0.00454545 </v>
   <v>       0.00454545 </v>
   <v>       0.00454545 </v>
   <v>       0.00454545 </v>
   <v>       0.00454545 </v>
   <v>       0.00454545 </v>
   <v>       0.00454545 </v>
   <v>       0.00454545 </v>
   <v>       0.00454545 </v>
   <v>       0.00454545 </v>
   <v>       0.00454545 </v>
   <v>       0.00454545 </v>
   <v>       0.00454545 </v>
   <v>       0.00454545 </v>
   <v>       0.00454545 </v>
   <v>       0.00454545 </v>
   <v>       0.00454545 </v>
   <v>       0.00454545 </v>
   <v>       0.00454545 </v>
   <v>       0.00454545 </v>
   <v>       0.00454545 </v>
   <v>       0.00454545 </v>
   <v>       0.00454545 </v>
   <v>       0.00454545 </v>
   <v>       0.00454545 </v>
   <v>       0.00454545 </v>
   <v>       0.00454545 </v>
   <v>       0.00454545 </v>
   <v>       0.00454545 </v>
   <v>       0.00454545 </v>
   <v>       0.00454545 </v>
   <v>       0.00454545 </v>
   <v>       0.00454545 </v>
   <v>       0.00454545 </v>
   <v>       0.00454545 </v>
   <v>       0.00454545 </v>
   <v>       0.00454545 </v>
   <v>       0.00454545 </v>
   <v>       0.00454545 </v>
   <v>       0.00454545 </v>
   <v>       0.00454545 </v>
   <v>       0.00454545 </v>
   <v>       0.00454545 </v>
   <v>       0.00454545 </v>
   <v>       0.00454545 </v>
   <v>       0.00454545 </v>
   <v>       0.00454545 </v>
   <v>       0.00454545 </v>
   <v>       0.00454545 </v>
   <v>       0.00454545 </v>
   <v>       0.00454545 </v>
   <v>       0.00454545 </v>
   <v>       0.00454545 </v>
   <v>       0.00454545 </v>
   <v>       0.00454545 </v>
   <v>       0.00454545 </v>
   <v>       0.00454545 </v>
   <v>       0.00454545 </v>
   <v>       0.00454545 </v>
   <v>       0.00454545 </v>
   <v>       0.00454545 </v>
   <v>       0.00454545 </v>
   <v>       0.00454545 </v>
   <v>       0.00454545 </v>
   <v>       0.00454545 </v>
   <v>       0.00454545 </v>
   <v>       0.00454545 </v>
   <v>       0.00454545 </v>
   <v>       0.00454545 </v>
   <v>       0.00454545 </v>
   <v>       0.00454545 </v>
   <v>       0.00454545 </v>
   <v>       0.00454545 </v>
   <v>       0.00454545 </v>
   <v>       0.00454545 </v>
   <v>       0.00454545 </v>
   <v>       0.00454545 </v>
   <v>       0.00454545 </v>
   <v>       0.00454545 </v>
   <v>       0.00454545 </v>
   <v>       0.00454545 </v>
   <v>       0.00454545 </v>
   <v>       0.00454545 </v>
   <v>       0.00454545 </v>
   <v>       0.00454545 </v>
   <v>       0.00454545 </v>
   <v>       0.00454545 </v>
   <v>       0.00454545 </v>
   <v>       0.00454545 </v>
   <v>       0.00454545 </v>
   <v>       0.00454545 </v>
   <v>       0.00454545 </v>
   <v>       0.00454545 </v>
   <v>       0.00454545 </v>
   <v>       0.00454545 </v>
   <v>       0.00454545 </v>
   <v>       0.00454545 </v>
   <v>       0.00454545 </v>
   <v>       0.00454545 </v>
   <v>       0.00454545 </v>
   <v>       0.00454545 </v>
   <v>       0.00454545 </v>
   <v>       0.00454545 </v>
   <v>       0.00454545 </v>
   <v>       0.00454545 </v>
   <v>       0.00454545 </v>
   <v>       0.00454545 </v>
   <v>       0.00454545 </v>
   <v>       0.00454545 </v>
   <v>       0.00454545 </v>
   <v>       0.00454545 </v>
   <v>       0.00454545 </v>
   <v>       0.00454545 </v>
   <v>       0.00454545 </v>
   <v>       0.00454545 </v>
   <v>       0.00454545 </v>
   <v>       0.00454545 </v>
   <v>       0.00454545 </v>
   <v>       0.00454545 </v>
   <v>       0.00454545 </v>
   <v>       0.00454545 </v>
   <v>       0.00454545 </v>
   <v>       0.00454545 </v>
   <v>       0.00454545 </v>
   <v>       0.00454545 </v>
   <v>       0.00454545 </v>
   <v>       0.00454545 </v>
   <v>       0.00454545 </v>
   <v>       0.00454545 </v>
   <v>       0.00454545 </v>
   <v>       0.00454545 </v>
   <v>       0.00454545 </v>
   <v>       0.00454545 </v>
   <v>       0.00454545 </v>
   <v>       0.00454545 </v>
   <v>       0.00454545 </v>
   <v>       0.00454545 </v>
   <v>       0.00454545 </v>
   <v>       0.00454545 </v>
   <v>       0.00454545 </v>
   <v>       0.00454545 </v>
   <v>       0.00454545 </v>
   <v>       0.00454545 </v>
   <v>       0.00454545 </v>
   <v>       0.00454545 </v>
   <v>       0.00454545 </v>
   <v>       0.00454545 </v>
   <v>       0.00454545 </v>
   <v>       0.00454545 </v>
   <v>       0.00454545 </v>
   <v>       0.00454545 </v>
   <v>       0.00454545 </v>
   <v>       0.00454545 </v>
   <v>       0.00454545 </v>
   <v>       0.00454545 </v>
   <v>       0.00454545 </v>
   <v>       0.00454545 </v>
   <v>       0.00454545 </v>
   <v>       0.00454545 </v>
   <v>       0.00454545 </v>
   <v>       0.00454545 </v>
   <v>       0.00454545 </v>
   <v>       0.00454545 </v>
   <v>       0.00454545 </v>
   <v>       0.00454545 </v>
   <v>       0.00454545 </v>
   <v>       0.00454545 </v>
   <v>       0.00454545 </v>
   <v>       0.00454545 </v>
   <v>       0.00454545 </v>
   <v>       0.00454545 </v>
   <v>       0.00454545 </v>
   <v>       0.00454545 </v>
   <v>       0.00454545 </v>
   <v>       0.00454545 </v>
   <v>       0.00454545 </v>
  </varray>
 </kpoints>
 <parameters>
  <separator name="general" >
   <i type="string" name="SYSTEM">unknown system</i>
   <i type="logical" name="LCOMPAT"> F  </i>
  </separator>
  <separator name="electronic" >
   <i type="string" name="PREC">accura</i>
   <i name="ENMAX">    239.19600000</i>
   <i name="ENAUG">    449.70400000</i>
   <i name="EDIFF">      0.00000000</i>
   <i type="int" name="IALGO">    38</i>
   <i type="int" name="IWAVPR">    10</i>
   <i type="int" name="NBANDS">    32</i>
   <i name="NELECT">     26.00000000</i>
   <i type="int" name="TURBO">     0</i>
   <i type="int" name="IRESTART">     0</i>
   <i type="int" name="NREBOOT">     0</i>
   <i type="int" name="NMIN">     0</i>
   <i name="EREF">      0.00000000</i>
   <separator name="electronic smearing" >
    <i type="int" name="ISMEAR">    -1</i>
    <i name="SIGMA">      0.10000000</i>
    <i name="KSPACING">      0.50000000</i>
    <i type="logical" name="KGAMMA"> T  </i>
   </separator>
   <separator name="electronic projectors" >
    <i type="logical" name="LREAL"> F  </i>
    <v name="ROPT">      0.00000000</v>
    <i type="int" name="LMAXPAW">  -100</i>
    <i type="int" name="LMAXMIX">     2</i>
    <i type="logical" name="NLSPLINE"> F  </i>
   </separator>
   <separator name="electronic startup" >
    <i type="int" name="ISTART">     0</i>
    <i type="int" name="ICHARG">    11</i>
    <i type="int" name="INIWAV">     1</i>
   </separator>
   <separator name="electronic spin" >
    <i type="int" name="ISPIN">     1</i>
    <i type="logical" name="LNONCOLLINEAR"> F  </i>
    <v name="MAGMOM">      1.00000000      1.00000000</v>
    <i name="NUPDOWN">     -1.00000000</i>
    <i type="logical" name="LSORBIT"> F  </i>
    <v name="SAXIS">      0.00000000      0.00000000      1.00000000</v>
    <i type="logical" name="LSPIRAL"> F  </i>
    <v name="QSPIRAL">      0.00000000      0.00000000      0.00000000</v>
    <i type="logical" name="LZEROZ"> F  </i>
   </separator>
   <separator name="electronic exchange-correlation" >
    <i type="logical" name="LASPH"> F  </i>
    <i type="logical" name="LMETAGGA"> F  </i>
   </separator>
   <separator name="electronic convergence" >
    <i type="int" name="NELM">   800</i>
    <i type="int" name="NELMDL">    -5</i>
    <i type="int" name="NELMIN">     2</i>
    <i name="ENINI">    239.19600000</i>
    <separator name="electronic convergence detail" >
     <i type="logical" name="LDIAG"> T  </i>
     <i type="logical" name="LSUBROT"> F  </i>
     <i name="WEIMIN">      0.00000000</i>
     <i name="EBREAK">      0.00000000</i>
     <i name="DEPER">      0.30000000</i>
     <i type="int" name="NRMM">     4</i>
     <i name="TIME">      0.40000000</i>
    </separator>
   </separator>
   <separator name="electronic mixer" >
    <i name="AMIX">      0.40000000</i>
    <i name="BMIX">      1.00000000</i>
    <i name="AMIN">      0.10000000</i>
    <i name="AMIX_MAG">      1.60000000</i>
    <i name="BMIX_MAG">      1.00000000</i>
    <separator name="electronic mixer details" >
     <i type="int" name="IMIX">     4</i>
     <i type="logical" name="MIXFIRST"> F  </i>
     <i type="int" name="MAXMIX">   -45</i>
     <i name="WC">    100.00000000</i>
     <i type="int" name="INIMIX">     1</i>
     <i type="int" name="MIXPRE">     1</i>
     <i type="int" name="MREMOVE">     5</i>
    </separator>
   </separator>
   <separator name="electronic dipolcorrection" >
    <i type="logical" name="LDIPOL"> F  </i>
    <i type="logical" name="LMONO"> F  </i>
    <i type="int" name="IDIPOL">     0</i>
    <i name="EPSILON">      1.00000000</i>
    <v name="DIPOL">   -100.00000000   -100.00000000   -100.00000000</v>
    <i name="EFIELD">      0.00000000</i>
   </separator>
  </separator>
  <separator name="grids" >
   <i type="int" name="NGX">    18</i>
   <i type="int" name="NGY">    18</i>
   <i type="int" name="NGZ">    28</i>
   <i type="int" name="NGXF">    36</i>
   <i type="int" name="NGYF">    36</i>
   <i type="int" name="NGZF">    56</i>
   <i type="logical" name="ADDGRID"> F  </i>
  </separator>
  <separator name="ionic" >
   <i type="int" name="NSW">     0</i>
   <i type="int" name="IBRION">    -1</i>
   <i type="int" name="ISIF">     3</i>
   <i name="PSTRESS">      0.00000000</i>
   <i name="EDIFFG">      0.00000000</i>
   <i type="int" name="NFREE">     0</i>
   <i name="POTIM">      0.50000000</i>
   <i name="SMASS">     -3.00000000</i>
   <i name="SCALEE">      1.00000000</i>
  </separator>
  <separator name="ionic md" >
   <i name="TEBEG">      0.00010000</i>
   <i name="TEEND">      0.00010000</i>
   <i type="int" name="NBLOCK">     1</i>
   <i type="int" name="KBLOCK">     1</i>
   <i type="int" name="NPACO">   256</i>
   <i name="APACO">     16.00000000</i>
  </separator>
  <separator name="symmetry" >
   <i type="int" name="ISYM">     0</i>
   <i name="SYMPREC">      0.00001000</i>
  </separator>
  <separator name="dos" >
   <i type="logical" name="LORBIT"> F  </i>
   <v name="RWIGS">     -1.00000000</v>
   <i type="int" name="NEDOS">  1000</i>
   <i name="EMIN">    -20.00000000</i>
   <i name="EMAX">     10.00000000</i>
   <i name="EFERMI">      0.00000000</i>
  </separator>
  <separator name="writing" >
   <i type="int" name="NWRITE">     3</i>
   <i type="logical" name="LWAVE"> F  </i>
   <i type="logical" name="LCHARG"> T  </i>
   <i type="logical" name="LPARD"> F  </i>
   <i type="logical" name="LVTOT"> T  </i>
   <i type="logical" name="LVHAR"> F  </i>
   <i type="logical" name="LELF"> F  </i>
   <i type="logical" name="LOPTICS"> F  </i>
   <v name="STM">      0.00000000      0.00000000      0.00000000      0.00000000      0.00000000      0.00000000      0.00000000</v>
  </separator>
  <separator name="performance" >
   <i type="int" name="NPAR">    32</i>
   <i type="int" name="NSIM">     4</i>
   <i type="int" name="NBLK">    -1</i>
   <i type="logical" name="LPLANE"> T  </i>
   <i type="logical" name="LSCALAPACK"> T  </i>
   <i type="logical" name="LSCAAWARE"> T  </i>
   <i type="logical" name="LSCALU"> F  </i>
   <i type="logical" name="LASYNC"> F  </i>
   <i type="logical" name="LORBITALREAL"> F  </i>
  </separator>
  <separator name="miscellaneous" >
   <i type="int" name="IDIOT">     3</i>
   <i type="logical" name="LMUSIC"> F  </i>
   <v name="POMASS">    114.82000000</v>
   <v name="DARWINR">      0.00000000</v>
   <v name="DARWINV">      1.00000000</v>
   <i type="logical" name="LCORR"> T  </i>
  </separator>
  <i type="logical" name="GGA_COMPAT"> T  </i>
  <i type="logical" name="LBERRY"> F  </i>
  <i type="int" name="ICORELEVEL">     0</i>
  <i type="logical" name="LDAU"> F  </i>
  <i type="int" name="I_CONSTRAINED_M">     0</i>
  <separator name="electronic exchange-correlation" >
   <i type="string" name="GGA">--</i>
   <i type="int" name="VOSKOWN">     0</i>
   <i type="logical" name="LHFCALC"> F  </i>
   <i type="string" name="PRECFOCK"></i>
   <i type="logical" name="LSYMGRAD"> F  </i>
   <i type="logical" name="LHFONE"> F  </i>
   <i type="logical" name="LRHFCALC"> F  </i>
   <i type="logical" name="LTHOMAS"> F  </i>
   <i type="logical" name="LMODELHF"> F  </i>
   <i name="ENCUT4O">     -1.00000000</i>
   <i type="int" name="EXXOEP">     0</i>
   <i type="int" name="FOURORBIT">     0</i>
   <i name="AEXX">      0.00000000</i>
   <i name="HFALPHA">      0.00000000</i>
   <i name="MCALPHA">      0.00000000</i>
   <i name="ALDAX">      1.00000000</i>
   <i name="AGGAX">      1.00000000</i>
   <i name="ALDAC">      1.00000000</i>
   <i name="AGGAC">      1.00000000</i>
   <i type="int" name="NKREDX">     1</i>
   <i type="int" name="NKREDY">     1</i>
   <i type="int" name="NKREDZ">     1</i>
   <i type="logical" name="SHIFTRED"> F  </i>
   <i type="logical" name="ODDONLY"> F  </i>
   <i type="logical" name="EVENONLY"> F  </i>
   <i type="int" name="LMAXFOCK">     0</i>
   <i type="int" name="NMAXFOCKAE">     0</i>
   <i type="logical" name="LFOCKAEDFT"> F  </i>
   <i name="HFSCREEN">      0.00000000</i>
   <i name="HFSCREENC">      0.00000000</i>
   <i type="int" name="NBANDSGWLOW">     0</i>
  </separator>
  <separator name="vdW DFT" >
   <i type="logical" name="LUSE_VDW"> F  </i>
   <i name="Zab_VDW">     -0.84910000</i>
   <i name="PARAM1">      0.12340000</i>
   <i name="PARAM2">      1.00000000</i>
   <i name="PARAM3">      0.00000000</i>
  </separator>
  <separator name="model GW" >
   <i type="int" name="MODEL_GW">     0</i>
   <i name="MODEL_EPS0">     16.52344941</i>
   <i name="MODEL_ALPHA">      1.00000000</i>
  </separator>
  <separator name="linear response parameters" >
   <i type="logical" name="LEPSILON"> F  </i>
   <i type="logical" name="LRPA"> F  </i>
   <i type="logical" name="LNABLA"> F  </i>
   <i type="logical" name="LVEL"> F  </i>
   <i type="int" name="KINTER">     0</i>
   <i name="CSHIFT">      0.10000000</i>
   <i name="OMEGAMAX">     -1.00000000</i>
   <i name="DEG_THRESHOLD">      0.00200000</i>
  </separator>
  <separator name="orbital magnetization" >
   <i type="logical" name="NUCIND"> F  </i>
   <v name="MAGPOS">      0.00000000      0.00000000      0.00000000</v>
   <i type="logical" name="LNICSALL"> T  </i>
   <i type="logical" name="ORBITALMAG"> F  </i>
   <i type="logical" name="LMAGBLOCH"> F  </i>
   <i type="logical" name="LCHIMAG"> F  </i>
   <i type="logical" name="LGAUGE"> T  </i>
   <i type="int" name="MAGATOM">     0</i>
   <v name="MAGDIPOL">      0.00000000      0.00000000      0.00000000</v>
   <v name="AVECCONST">      0.00000000      0.00000000      0.00000000</v>
  </separator>
  <separator name="response functions" >
   <i type="logical" name="LADDER"> F  </i>
   <i type="logical" name="LFXC"> F  </i>
   <i type="logical" name="LHARTREE"> T  </i>
   <i type="int" name="IBSE">     0</i>
   <v type="int" name="KPOINT">    -1     0     0     0</v>
   <i type="logical" name="LTCTE"> F  </i>
   <i type="logical" name="LTETE"> F  </i>
   <i type="logical" name="LTRIPLET"> F  </i>
   <i type="logical" name="LFXCEPS"> F  </i>
   <i type="logical" name="LFXHEG"> F  </i>
   <i type="int" name="NATURALO">     0</i>
   <i type="logical" name="L2ORDER"> F  </i>
   <i type="logical" name="LUSEW"> F  </i>
   <i name="ENCUTGW">     -2.00000000</i>
   <i name="ENCUTGWSOFT">     -2.00000000</i>
   <i name="ENCUTLF">     -1.00000000</i>
   <i type="int" name="LMAXMP2">    -1</i>
   <i name="SCISSOR">      0.00000000</i>
   <i type="int" name="NOMEGA">     0</i>
   <i type="int" name="NOMEGAR">     0</i>
   <i type="int" name="NBANDSGW">    -1</i>
   <i type="int" name="NBANDSO">    -1</i>
   <i type="int" name="NBANDSV">    -1</i>
   <i type="int" name="NELM">   800</i>
   <i type="int" name="NELMHF">     1</i>
   <i type="int" name="DIM">     3</i>
   <i type="int" name="ANTIRES">     0</i>
   <i name="OMEGAMAX">    -30.00000000</i>
   <i name="OMEGAMIN">    -30.00000000</i>
   <i name="OMEGATL">   -200.00000000</i>
   <i type="int" name="OMEGAGRID">     0</i>
   <i name="CSHIFT">     -0.10000000</i>
   <i type="logical" name="SELFENERGY"> F  </i>
   <i type="logical" name="LSPECTRAL"> F  </i>
   <i type="logical" name="LSPECTRALGW"> F  </i>
   <i type="logical" name="LSINGLES"> F  </i>
   <i type="logical" name="LFERMIGW"> F  </i>
   <i type="logical" name="ODDONLYGW"> F  </i>
   <i type="logical" name="EVENONLYGW"> F  </i>
   <i type="int" name="NKREDLFX">     1</i>
   <i type="int" name="NKREDLFY">     1</i>
   <i type="int" name="NKREDLFZ">     1</i>
   <i type="int" name="MAXMEM">  1800</i>
   <i type="int" name="TELESCOPE">     0</i>
   <i type="int" name="TAUPAR">     1</i>
   <i type="int" name="OMEGAPAR">    -1</i>
   <i name="LAMBDA">      1.00000000</i>
  </separator>
  <separator name="External order field" >
   <i name="OFIELD_KAPPA">      0.00000000</i>
   <v name="OFIELD_K">      0.00000000      0.00000000      0.00000000</v>
   <i name="OFIELD_Q6_NEAR">      0.00000000</i>
   <i name="OFIELD_Q6_FAR">      0.00000000</i>
   <i name="OFIELD_A">      0.00000000</i>
  </separator>
 </parameters>
 <atominfo>
  <atoms>       2 </atoms>
  <types>       1 </types>
  <array name="atoms" >
   <dimension dim="1">ion</dimension>
   <field type="string">element</field>
   <field type="int">atomtype</field>
   <set>
    <rc><c>In</c><c>   1</c></rc>
    <rc><c>In</c><c>   1</c></rc>
   </set>
  </array>
  <array name="atomtypes" >
   <dimension dim="1">type</dimension>
   <field type="int">atomspertype</field>
   <field type="string">element</field>
   <field>mass</field>
   <field>valence</field>
   <field type="string">pseudopotential</field>
   <set>
    <rc><c>   2</c><c>In</c><c>    114.82000000</c><c>     13.00000000</c><c>  PAW In_d 11Feb1998                    </c></rc>
   </set>
  </array>
 </atominfo>
 <structure name="initialpos" >
  <crystal>
   <varray name="basis" >
    <v>       3.29841000       0.00000000       0.00000000 </v>
    <v>       0.00000000       3.29841000       0.00000000 </v>
    <v>       0.00000000       0.00000000       5.06256000 </v>
   </varray>
   <i name="volume">     55.07816469 </i>
   <varray name="rec_basis" >
    <v>       0.30317638      -0.00000000      -0.00000000 </v>
    <v>       0.00000000       0.30317638      -0.00000000 </v>
    <v>       0.00000000       0.00000000       0.19752852 </v>
   </varray>
  </crystal>
  <varray name="positions" >
   <v>       0.00000000       0.00000000       0.00000000 </v>
   <v>       0.50000000       0.50000000       0.50000000 </v>
  </varray>
 </structure>
 <calculation>
  <scstep>
   <time name="dav">    2.11    2.11</time>
   <time name="total">    2.12    2.12</time>
   <energy>
    <i name="alphaZ">     65.39877826 </i>
    <i name="ewald">  -2327.17926251 </i>
    <i name="hartreedc">   -863.09218511 </i>
    <i name="XCdc">     84.31086678 </i>
    <i name="pawpsdc">   3387.37274778 </i>
    <i name="pawaedc">  -3375.80147460 </i>
    <i name="eentropy">     -0.04639487 </i>
    <i name="bandstr">   -110.23610772 </i>
    <i name="atom">   3159.85287898 </i>
    <i name="e_fr_energy">     20.57984699 </i>
    <i name="e_wo_entrp">     20.62624186 </i>
    <i name="e_0_energy">     20.60304443 </i>
   </energy>
  </scstep>
  <scstep>
   <time name="dav">    3.38    3.39</time>
   <time name="total">    3.40    3.41</time>
   <energy>
    <i name="e_fr_energy">     -4.26381325 </i>
    <i name="e_wo_entrp">     -4.20600015 </i>
    <i name="e_0_energy">     -4.23490670 </i>
   </energy>
  </scstep>
  <scstep>
   <time name="dav">    3.96    3.96</time>
   <time name="total">    3.98    3.99</time>
   <energy>
    <i name="e_fr_energy">     -4.43997133 </i>
    <i name="e_wo_entrp">     -4.38196693 </i>
    <i name="e_0_energy">     -4.41096913 </i>
   </energy>
  </scstep>
  <scstep>
   <time name="dav">    5.83    5.84</time>
   <time name="total">    5.85    5.86</time>
   <energy>
    <i name="e_fr_energy">     -4.44092954 </i>
    <i name="e_wo_entrp">     -4.38291935 </i>
    <i name="e_0_energy">     -4.41192444 </i>
   </energy>
  </scstep>
  <scstep>
   <time name="dav">    4.04    4.05</time>
   <time name="total">    4.07    4.13</time>
   <energy>
    <i name="e_fr_energy">     -4.44092975 </i>
    <i name="e_wo_entrp">     -4.38291955 </i>
    <i name="e_0_energy">     -4.41192465 </i>
   </energy>
  </scstep>
  <scstep>
   <time name="dav">    5.80    5.81</time>
   <time name="total">    5.82    5.83</time>
   <energy>
    <i name="e_fr_energy">     -4.44092975 </i>
    <i name="e_wo_entrp">     -4.38291955 </i>
    <i name="e_0_energy">     -4.41192465 </i>
   </energy>
  </scstep>
  <scstep>
   <time name="dav">    4.00    4.01</time>
   <time name="total">    4.03    4.03</time>
   <energy>
    <i name="alphaZ">     65.39877826 </i>
    <i name="ewald">  -2327.17926251 </i>
    <i name="hartreedc">   -863.09218511 </i>
    <i name="XCdc">     84.31086678 </i>
    <i name="pawpsdc">   3387.37274778 </i>
    <i name="pawaedc">  -3375.80147460 </i>
    <i name="eentropy">     -0.05801019 </i>
    <i name="bandstr">   -135.24526913 </i>
    <i name="atom">   3159.85287898 </i>
    <i name="e_fr_energy">     -4.44092975 </i>
    <i name="e_wo_entrp">     -4.38291955 </i>
    <i name="e_0_energy">     -4.41192465 </i>
   </energy>
  </scstep>
  <structure>
   <crystal>
    <varray name="basis" >
     <v>       3.29841000       0.00000000       0.00000000 </v>
     <v>       0.00000000       3.29841000       0.00000000 </v>
     <v>       0.00000000       0.00000000       5.06256000 </v>
    </varray>
    <i name="volume">     55.07816469 </i>
    <varray name="rec_basis" >
     <v>       0.30317638      -0.00000000      -0.00000000 </v>
     <v>       0.00000000       0.30317638      -0.00000000 </v>
     <v>       0.00000000       0.00000000       0.19752852 </v>
    </varray>
   </crystal>
   <varray name="positions" >
    <v>       0.00000000       0.00000000       0.00000000 </v>
    <v>       0.50000000       0.50000000       0.50000000 </v>
   </varray>
  </structure>
  <varray name="forces" >
   <v>       0.00000000      -0.00000000      -0.00000000 </v>
   <v>      -0.00000000       0.00000000       0.00000000 </v>
  </varray>
  <varray name="stress" >
   <v>      37.35399491     -17.31067829       8.82126221 </v>
   <v>     -17.31067822     195.25511138     -55.76266537 </v>
   <v>       8.82126195     -55.76266547      51.73409336 </v>
  </varray>
  <energy>
   <i name="e_fr_energy">     -4.44092975 </i>
   <i name="e_wo_entrp">     -4.41192465 </i>
   <i name="e_0_energy">     -0.05801019 </i>
  </energy>
  <time name="totalsc">   29.83   29.94</time>
  <eigenvalues>
   <array>
    <dimension dim="1">band</dimension>
    <dimension dim="2">kpoint</dimension>
    <dimension dim="3">spin</dimension>
    <field>eigene</field>
    <field>occ</field>
    <set>
     <set comment="spin 1">
      <set comment="kpoint 1">
       <r>   -8.0501    1.0000 </r>
       <r>   -7.9322    1.0000 </r>
       <r>   -7.8977    1.0000 </r>
       <r>   -7.7937    1.0000 </r>
       <r>   -7.7937    1.0000 </r>
       <r>   -7.7314    1.0000 </r>
       <r>   -7.6274    1.0000 </r>
       <r>   -7.5406    1.0000 </r>
       <r>   -7.5161    1.0000 </r>
       <r>   -7.5161    1.0000 </r>
       <r>   -2.5730    1.0000 </r>
       <r>    3.4984    1.0000 </r>
       <r>    4.1297    1.0000 </r>
       <r>   11.2664    0.0000 </r>
       <r>   11.2664    0.0000 </r>
       <r>   14.7016    0.0000 </r>
       <r>   14.8069    0.0000 </r>
       <r>   16.6101    0.0000 </r>
       <r>   16.6101    0.0000 </r>
       <r>   16.7472    0.0000 </r>
       <r>   18.2556    0.0000 </r>
       <r>   20.2214    0.0000 </r>
       <r>   20.3987    0.0000 </r>
       <r>   20.3987    0.0000 </r>
       <r>   21.4362    0.0000 </r>
       <r>   22.2542    0.0000 </r>
       <r>   24.5891    0.0000 </r>
       <r>   25.1072    0.0000 </r>
       <r>   25.1072    0.0000 </r>
       <r>   28.1046    0.0000 </r>
       <r>   28.8189    0.0000 </r>
       <r>   30.1831    0.0000 </r>
      </set>
      <set comment="kpoint 2">
       <r>   -8.0498    1.0000 </r>
       <r>   -7.9318    1.0000 </r>
       <r>   -7.8980    1.0000 </r>
       <r>   -7.7931    1.0000 </r>
       <r>   -7.7931    1.0000 </r>
       <r>   -7.7307    1.0000 </r>
       <r>   -7.6273    1.0000 </r>
       <r>   -7.5407    1.0000 </r>
       <r>   -7.5166    1.0000 </r>
       <r>   -7.5166    1.0000 </r>
       <r>   -2.5687    1.0000 </r>
       <r>    3.3597    1.0000 </r>
       <r>    4.2764    1.0000 </r>
       <r>   11.2717    0.0000 </r>
       <r>   11.2717    0.0000 </r>
       <r>   14.7045    0.0000 </r>
       <r>   14.8096    0.0000 </r>
       <r>   16.5836    0.0000 </r>
       <r>   16.5836    0.0000 </r>
       <r>   16.7283    0.0000 </r>
       <r>   18.2296    0.0000 </r>
       <r>   20.2550    0.0000 </r>
       <r>   20.4310    0.0000 </r>
       <r>   20.4310    0.0000 </r>
       <r>   21.3168    0.0000 </r>
       <r>   22.3219    0.0000 </r>
       <r>   24.6769    0.0000 </r>
       <r>   25.1135    0.0000 </r>
       <r>   25.1135    0.0000 </r>
       <r>   28.1054    0.0000 </r>
       <r>   28.8169    0.0000 </r>
       <r>   30.1912    0.0000 </r>
      </set>
      <set comment="kpoint 3">
       <r>   -8.0491    1.0000 </r>
       <r>   -7.9307    1.0000 </r>
       <r>   -7.8987    1.0000 </r>
       <r>   -7.7918    1.0000 </r>
       <r>   -7.7918    1.0000 </r>
       <r>   -7.7317    1.0000 </r>
       <r>   -7.6268    1.0000 </r>
       <r>   -7.5412    1.0000 </r>
       <r>   -7.5181    1.0000 </r>
       <r>   -7.5181    1.0000 </r>
       <r>   -2.5556    1.0000 </r>
       <r>    3.0942    1.0000 </r>
       <r>    4.5657    1.0000 </r>
       <r>   11.2874    0.0000 </r>
       <r>   11.2874    0.0000 </r>
       <r>   14.7133    0.0000 </r>
       <r>   14.8177    0.0000 </r>
       <r>   16.5064    0.0000 </r>
       <r>   16.5064    0.0000 </r>
       <r>   16.6717    0.0000 </r>
       <r>   18.1563    0.0000 </r>
       <r>   20.3510    0.0000 </r>
       <r>   20.5252    0.0000 </r>
       <r>   20.5252    0.0000 </r>
       <r>   21.0211    0.0000 </r>
       <r>   22.4661    0.0000 </r>
       <r>   24.9198    0.0000 </r>
       <r>   25.1294    0.0000 </r>
       <r>   25.1294    0.0000 </r>
       <r>   28.1077    0.0000 </r>
       <r>   28.8111    0.0000 </r>
       <r>   30.2084    0.0000 </r>
      </set>
      <set comment="kpoint 4">
       <r>   -8.0478    1.0000 </r>
       <r>   -7.9287    1.0000 </r>
       <r>   -7.9000    1.0000 </r>
       <r>   -7.7895    1.0000 </r>
       <r>   -7.7895    1.0000 </r>
       <r>   -7.7331    1.0000 </r>
       <r>   -7.6261    1.0000 </r>
       <r>   -7.5419    1.0000 </r>
       <r>   -7.5206    1.0000 </r>
       <r>   -7.5206    1.0000 </r>
       <r>   -2.5339    1.0000 </r>
       <r>    2.8044    1.0000 </r>
       <r>    4.8952    1.0000 </r>
       <r>   11.3136    0.0000 </r>
       <r>   11.3136    0.0000 </r>
       <r>   14.7279    0.0000 </r>
       <r>   14.8312    0.0000 </r>
       <r>   16.3855    0.0000 </r>
       <r>   16.3855    0.0000 </r>
       <r>   16.5788    0.0000 </r>
       <r>   18.0470    0.0000 </r>
       <r>   20.4982    0.0000 </r>
       <r>   20.6456    0.0000 </r>
       <r>   20.6744    0.0000 </r>
       <r>   20.6744    0.0000 </r>
       <r>   22.6377    0.0000 </r>
       <r>   25.1559    0.0000 </r>
       <r>   25.1559    0.0000 </r>
       <r>   25.2737    0.0000 </r>
       <r>   28.1114    0.0000 </r>
       <r>   28.8014    0.0000 </r>
       <r>   30.2382    0.0000 </r>
      </set>
      <set comment="kpoint 5">
       <r>   -8.0461    1.0000 </r>
       <r>   -7.9259    1.0000 </r>
       <r>   -7.9017    1.0000 </r>
       <r>   -7.7864    1.0000 </r>
       <r>   -7.7864    1.0000 </r>
       <r>   -7.7351    1.0000 </r>
       <r>   -7.6251    1.0000 </r>
       <r>   -7.5430    1.0000 </r>
       <r>   -7.5240    1.0000 </r>
       <r>   -7.5240    1.0000 </r>
       <r>   -2.5035    1.0000 </r>
       <r>    2.5122    1.0000 </r>
       <r>    5.2428    1.0000 </r>
       <r>   11.3503    0.0000 </r>
       <r>   11.3503    0.0000 </r>
       <r>   14.7485    0.0000 </r>
       <r>   14.8502    0.0000 </r>
       <r>   16.2299    0.0000 </r>
       <r>   16.2299    0.0000 </r>
       <r>   16.4514    0.0000 </r>
       <r>   17.9137    0.0000 </r>
       <r>   20.2341    0.0000 </r>
       <r>   20.6845    0.0000 </r>
       <r>   20.8697    0.0000 </r>
       <r>   20.8697    0.0000 </r>
       <r>   22.8310    0.0000 </r>
       <r>   25.1930    0.0000 </r>
       <r>   25.1930    0.0000 </r>
       <r>   25.6968    0.0000 </r>
       <r>   28.1166    0.0000 </r>
       <r>   28.7881    0.0000 </r>
       <r>   30.1882    0.0000 </r>
      </set>
      <set comment="kpoint 6">
       <r>   -8.0439    1.0000 </r>
       <r>   -7.9225    1.0000 </r>
       <r>   -7.9039    1.0000 </r>
       <r>   -7.7825    1.0000 </r>
       <r>   -7.7825    1.0000 </r>
       <r>   -7.7376    1.0000 </r>
       <r>   -7.6238    1.0000 </r>
       <r>   -7.5443    1.0000 </r>
       <r>   -7.5284    1.0000 </r>
       <r>   -7.5284    1.0000 </r>
       <r>   -2.4643    1.0000 </r>
       <r>    2.2238    1.0000 </r>
       <r>    5.6025    1.0000 </r>
       <r>   11.3973    0.0000 </r>
       <r>   11.3973    0.0000 </r>
       <r>   14.7751    0.0000 </r>
       <r>   14.8746    0.0000 </r>
       <r>   16.0482    0.0000 </r>
       <r>   16.0482    0.0000 </r>
       <r>   16.2912    0.0000 </r>
       <r>   17.7659    0.0000 </r>
       <r>   19.8094    0.0000 </r>
       <r>   20.9005    0.0000 </r>
       <r>   21.1023    0.0000 </r>
       <r>   21.1023    0.0000 </r>
       <r>   23.0484    0.0000 </r>
       <r>   25.2406    0.0000 </r>
       <r>   25.2406    0.0000 </r>
       <r>   26.1587    0.0000 </r>
       <r>   28.1233    0.0000 </r>
       <r>   28.7714    0.0000 </r>
       <r>   29.9614    0.0000 </r>
      </set>
      <set comment="kpoint 7">
       <r>   -8.0412    1.0000 </r>
       <r>   -7.9183    1.0000 </r>
       <r>   -7.9080    1.0000 </r>
       <r>   -7.7767    1.0000 </r>
       <r>   -7.7767    1.0000 </r>
       <r>   -7.7412    1.0000 </r>
       <r>   -7.6224    1.0000 </r>
       <r>   -7.5459    1.0000 </r>
       <r>   -7.5336    1.0000 </r>
       <r>   -7.5336    1.0000 </r>
       <r>   -2.4164    1.0000 </r>
       <r>    1.9414    1.0000 </r>
       <r>    5.9718    1.0000 </r>
       <r>   11.4546    0.0000 </r>
       <r>   11.4546    0.0000 </r>
       <r>   14.8077    0.0000 </r>
       <r>   14.9044    0.0000 </r>
       <r>   15.8477    0.0000 </r>
       <r>   15.8477    0.0000 </r>
       <r>   16.0996    0.0000 </r>
       <r>   17.6136    0.0000 </r>
       <r>   19.3861    0.0000 </r>
       <r>   21.1411    0.0000 </r>
       <r>   21.3650    0.0000 </r>
       <r>   21.3650    0.0000 </r>
       <r>   23.2932    0.0000 </r>
       <r>   25.2984    0.0000 </r>
       <r>   25.2984    0.0000 </r>
       <r>   26.6366    0.0000 </r>
       <r>   28.1312    0.0000 </r>
       <r>   28.7518    0.0000 </r>
       <r>   29.7179    0.0000 </r>
      </set>
      <set comment="kpoint 8">
       <r>   -8.0381    1.0000 </r>
       <r>   -7.9134    1.0000 </r>
       <r>   -7.9110    1.0000 </r>
       <r>   -7.7703    1.0000 </r>
       <r>   -7.7703    1.0000 </r>
       <r>   -7.7447    1.0000 </r>
       <r>   -7.6196    1.0000 </r>
       <r>   -7.5477    1.0000 </r>
       <r>   -7.5398    1.0000 </r>
       <r>   -7.5398    1.0000 </r>
       <r>   -2.3597    1.0000 </r>
       <r>    1.6661    1.0000 </r>
       <r>    6.3497    0.9979 </r>
       <r>   11.5222    0.0000 </r>
       <r>   11.5222    0.0000 </r>
       <r>   14.8466    0.0000 </r>
       <r>   14.9397    0.0000 </r>
       <r>   15.6351    0.0000 </r>
       <r>   15.6351    0.0000 </r>
       <r>   15.8772    0.0000 </r>
       <r>   17.4549    0.0000 </r>
       <r>   18.9747    0.0000 </r>
       <r>   21.3993    0.0000 </r>
       <r>   21.6514    0.0000 </r>
       <r>   21.6514    0.0000 </r>
       <r>   23.5625    0.0000 </r>
       <r>   25.3693    0.0000 </r>
       <r>   25.3693    0.0000 </r>
       <r>   27.1183    0.0000 </r>
       <r>   28.1409    0.0000 </r>
       <r>   28.7294    0.0000 </r>
       <r>   29.4639    0.0000 </r>
      </set>
      <set comment="kpoint 9">
       <r>   -8.0345    1.0000 </r>
       <r>   -7.9147    1.0000 </r>
       <r>   -7.9067    1.0000 </r>
       <r>   -7.7641    1.0000 </r>
       <r>   -7.7641    1.0000 </r>
       <r>   -7.7487    1.0000 </r>
       <r>   -7.6177    1.0000 </r>
       <r>   -7.5498    1.0000 </r>
       <r>   -7.5466    1.0000 </r>
       <r>   -7.5466    1.0000 </r>
       <r>   -2.2942    1.0000 </r>
       <r>    1.3984    1.0000 </r>
       <r>    6.7356    0.9104 </r>
       <r>   11.5999    0.0000 </r>
       <r>   11.5999    0.0000 </r>
       <r>   14.8920    0.0000 </r>
       <r>   14.9805    0.0000 </r>
       <r>   15.4145    0.0000 </r>
       <r>   15.4145    0.0000 </r>
       <r>   15.6241    0.0000 </r>
       <r>   17.2950    0.0000 </r>
       <r>   18.5800    0.0000 </r>
       <r>   21.6723    0.0000 </r>
       <r>   21.9565    0.0000 </r>
       <r>   21.9565    0.0000 </r>
       <r>   23.8541    0.0000 </r>
       <r>   25.4486    0.0000 </r>
       <r>   25.4486    0.0000 </r>
       <r>   27.5822    0.0000 </r>
       <r>   28.1521    0.0000 </r>
       <r>   28.7047    0.0000 </r>
       <r>   29.2039    0.0000 </r>
      </set>
      <set comment="kpoint 10">
       <r>   -8.0306    1.0000 </r>
       <r>   -7.9188    1.0000 </r>
       <r>   -7.9009    1.0000 </r>
       <r>   -7.7572    1.0000 </r>
       <r>   -7.7572    1.0000 </r>
       <r>   -7.7532    1.0000 </r>
       <r>   -7.6155    1.0000 </r>
       <r>   -7.5543    1.0000 </r>
       <r>   -7.5543    1.0000 </r>
       <r>   -7.5521    1.0000 </r>
       <r>   -2.2199    1.0000 </r>
       <r>    1.1388    1.0000 </r>
       <r>    7.1287    0.1664 </r>
       <r>   11.6876    0.0000 </r>
       <r>   11.6876    0.0000 </r>
       <r>   14.9439    0.0000 </r>
       <r>   15.0269    0.0000 </r>
       <r>   15.1897    0.0000 </r>
       <r>   15.1897    0.0000 </r>
       <r>   15.3407    0.0000 </r>
       <r>   17.1367    0.0000 </r>
       <r>   18.2092    0.0000 </r>
       <r>   21.9586    0.0000 </r>
       <r>   22.2769    0.0000 </r>
       <r>   22.2769    0.0000 </r>
       <r>   24.1675    0.0000 </r>
       <r>   25.5386    0.0000 </r>
       <r>   25.5386    0.0000 </r>
       <r>   28.0136    0.0000 </r>
       <r>   28.1649    0.0000 </r>
       <r>   28.6780    0.0000 </r>
       <r>   28.9395    0.0000 </r>
      </set>
      <set comment="kpoint 11">
       <r>   -8.0262    1.0000 </r>
       <r>   -7.9245    1.0000 </r>
       <r>   -7.8945    1.0000 </r>
       <r>   -7.7585    1.0000 </r>
       <r>   -7.7497    1.0000 </r>
       <r>   -7.7497    1.0000 </r>
       <r>   -7.6131    1.0000 </r>
       <r>   -7.5627    1.0000 </r>
       <r>   -7.5627    1.0000 </r>
       <r>   -7.5546    1.0000 </r>
       <r>   -2.1367    1.0000 </r>
       <r>    0.8874    1.0000 </r>
       <r>    7.5286    0.0036 </r>
       <r>   11.7851    0.0000 </r>
       <r>   11.7851    0.0000 </r>
       <r>   14.9627    0.0000 </r>
       <r>   14.9627    0.0000 </r>
       <r>   15.0025    0.0000 </r>
       <r>   15.0275    0.0000 </r>
       <r>   15.0788    0.0000 </r>
       <r>   16.9804    0.0000 </r>
       <r>   17.8650    0.0000 </r>
       <r>   22.2545    0.0000 </r>
       <r>   22.6099    0.0000 </r>
       <r>   22.6099    0.0000 </r>
       <r>   24.5010    0.0000 </r>
       <r>   25.6384    0.0000 </r>
       <r>   25.6384    0.0000 </r>
       <r>   28.1793    0.0000 </r>
       <r>   28.3936    0.0000 </r>
       <r>   28.6547    0.0000 </r>
       <r>   28.6723    0.0000 </r>
      </set>
      <set comment="kpoint 12">
       <r>   -8.0216    1.0000 </r>
       <r>   -7.9293    1.0000 </r>
       <r>   -7.8876    1.0000 </r>
       <r>   -7.7640    1.0000 </r>
       <r>   -7.7414    1.0000 </r>
       <r>   -7.7414    1.0000 </r>
       <r>   -7.6105    1.0000 </r>
       <r>   -7.5716    1.0000 </r>
       <r>   -7.5716    1.0000 </r>
       <r>   -7.5574    1.0000 </r>
       <r>   -2.0447    1.0000 </r>
       <r>    0.6444    1.0000 </r>
       <r>    7.9352    0.0001 </r>
       <r>   11.8924    0.0000 </r>
       <r>   11.8924    0.0000 </r>
       <r>   14.6864    0.0000 </r>
       <r>   14.7365    0.0000 </r>
       <r>   14.7365    0.0000 </r>
       <r>   15.0680    0.0000 </r>
       <r>   15.1363    0.0000 </r>
       <r>   16.8289    0.0000 </r>
       <r>   17.5507    0.0000 </r>
       <r>   22.5635    0.0000 </r>
       <r>   22.9532    0.0000 </r>
       <r>   22.9532    0.0000 </r>
       <r>   24.8529    0.0000 </r>
       <r>   25.7497    0.0000 </r>
       <r>   25.7497    0.0000 </r>
       <r>   28.1953    0.0000 </r>
       <r>   28.4023    0.0000 </r>
       <r>   28.4023    0.0000 </r>
       <r>   28.6206    0.0000 </r>
      </set>
      <set comment="kpoint 13">
       <r>   -8.0166    1.0000 </r>
       <r>   -7.9344    1.0000 </r>
       <r>   -7.8802    1.0000 </r>
       <r>   -7.7700    1.0000 </r>
       <r>   -7.7324    1.0000 </r>
       <r>   -7.7324    1.0000 </r>
       <r>   -7.6076    1.0000 </r>
       <r>   -7.5812    1.0000 </r>
       <r>   -7.5812    1.0000 </r>
       <r>   -7.5603    1.0000 </r>
       <r>   -1.9437    1.0000 </r>
       <r>    0.4100    1.0000 </r>
       <r>    8.3479    0.0000 </r>
       <r>   12.0093    0.0000 </r>
       <r>   12.0093    0.0000 </r>
       <r>   14.3200    0.0000 </r>
       <r>   14.5123    0.0000 </r>
       <r>   14.5123    0.0000 </r>
       <r>   15.1408    0.0000 </r>
       <r>   15.1993    0.0000 </r>
       <r>   16.6818    0.0000 </r>
       <r>   17.2652    0.0000 </r>
       <r>   22.8827    0.0000 </r>
       <r>   23.3051    0.0000 </r>
       <r>   23.3051    0.0000 </r>
       <r>   25.2217    0.0000 </r>
       <r>   25.8719    0.0000 </r>
       <r>   25.8719    0.0000 </r>
       <r>   28.1283    0.0000 </r>
       <r>   28.1283    0.0000 </r>
       <r>   28.2128    0.0000 </r>
       <r>   28.2268    0.0000 </r>
      </set>
      <set comment="kpoint 14">
       <r>   -8.0113    1.0000 </r>
       <r>   -7.9398    1.0000 </r>
       <r>   -7.8727    1.0000 </r>
       <r>   -7.7764    1.0000 </r>
       <r>   -7.7229    1.0000 </r>
       <r>   -7.7229    1.0000 </r>
       <r>   -7.6046    1.0000 </r>
       <r>   -7.5918    1.0000 </r>
       <r>   -7.5918    1.0000 </r>
       <r>   -7.5636    1.0000 </r>
       <r>   -1.8338    1.0000 </r>
       <r>    0.1841    1.0000 </r>
       <r>    8.7664    0.0000 </r>
       <r>   12.1355    0.0000 </r>
       <r>   12.1355    0.0000 </r>
       <r>   13.9321    0.0000 </r>
       <r>   14.2913    0.0000 </r>
       <r>   14.2913    0.0000 </r>
       <r>   15.2211    0.0000 </r>
       <r>   15.2681    0.0000 </r>
       <r>   16.5396    0.0000 </r>
       <r>   17.0070    0.0000 </r>
       <r>   23.2117    0.0000 </r>
       <r>   23.6640    0.0000 </r>
       <r>   23.6640    0.0000 </r>
       <r>   25.6059    0.0000 </r>
       <r>   26.0050    0.0000 </r>
       <r>   26.0050    0.0000 </r>
       <r>   27.7998    0.0000 </r>
       <r>   27.8473    0.0000 </r>
       <r>   27.8473    0.0000 </r>
       <r>   28.2318    0.0000 </r>
      </set>
      <set comment="kpoint 15">
       <r>   -8.0058    1.0000 </r>
       <r>   -7.9454    1.0000 </r>
       <r>   -7.8646    1.0000 </r>
       <r>   -7.7832    1.0000 </r>
       <r>   -7.7128    1.0000 </r>
       <r>   -7.7128    1.0000 </r>
       <r>   -7.6023    1.0000 </r>
       <r>   -7.6023    1.0000 </r>
       <r>   -7.6015    1.0000 </r>
       <r>   -7.5668    1.0000 </r>
       <r>   -1.7149    1.0000 </r>
       <r>   -0.0329    1.0000 </r>
       <r>    9.1901    0.0000 </r>
       <r>   12.2710    0.0000 </r>
       <r>   12.2710    0.0000 </r>
       <r>   13.5268    0.0000 </r>
       <r>   14.0745    0.0000 </r>
       <r>   14.0745    0.0000 </r>
       <r>   15.3093    0.0000 </r>
       <r>   15.3424    0.0000 </r>
       <r>   16.4026    0.0000 </r>
       <r>   16.7735    0.0000 </r>
       <r>   23.5499    0.0000 </r>
       <r>   24.0285    0.0000 </r>
       <r>   24.0285    0.0000 </r>
       <r>   26.0045    0.0000 </r>
       <r>   26.1493    0.0000 </r>
       <r>   26.1493    0.0000 </r>
       <r>   27.3781    0.0000 </r>
       <r>   27.5567    0.0000 </r>
       <r>   27.5567    0.0000 </r>
       <r>   28.2524    0.0000 </r>
      </set>
      <set comment="kpoint 16">
       <r>   -8.0000    1.0000 </r>
       <r>   -7.9511    1.0000 </r>
       <r>   -7.8564    1.0000 </r>
       <r>   -7.7890    1.0000 </r>
       <r>   -7.7015    1.0000 </r>
       <r>   -7.7015    1.0000 </r>
       <r>   -7.6131    1.0000 </r>
       <r>   -7.6131    1.0000 </r>
       <r>   -7.5981    1.0000 </r>
       <r>   -7.5702    1.0000 </r>
       <r>   -1.5870    1.0000 </r>
       <r>   -0.2413    1.0000 </r>
       <r>    9.6187    0.0000 </r>
       <r>   12.4155    0.0000 </r>
       <r>   12.4155    0.0000 </r>
       <r>   13.1083    0.0000 </r>
       <r>   13.8628    0.0000 </r>
       <r>   13.8628    0.0000 </r>
       <r>   15.4058    0.0000 </r>
       <r>   15.4225    0.0000 </r>
       <r>   16.2714    0.0000 </r>
       <r>   16.5627    0.0000 </r>
       <r>   23.8995    0.0000 </r>
       <r>   24.3995    0.0000 </r>
       <r>   24.3995    0.0000 </r>
       <r>   26.3077    0.0000 </r>
       <r>   26.3077    0.0000 </r>
       <r>   26.4169    0.0000 </r>
       <r>   26.9625    0.0000 </r>
       <r>   27.2521    0.0000 </r>
       <r>   27.2521    0.0000 </r>
       <r>   28.1101    0.0000 </r>
      </set>
      <set comment="kpoint 17">
       <r>   -7.9941    1.0000 </r>
       <r>   -7.9571    1.0000 </r>
       <r>   -7.8480    1.0000 </r>
       <r>   -7.7975    1.0000 </r>
       <r>   -7.6913    1.0000 </r>
       <r>   -7.6913    1.0000 </r>
       <r>   -7.6242    1.0000 </r>
       <r>   -7.6242    1.0000 </r>
       <r>   -7.5948    1.0000 </r>
       <r>   -7.5736    1.0000 </r>
       <r>   -1.4502    1.0000 </r>
       <r>   -0.4407    1.0000 </r>
       <r>   10.0515    0.0000 </r>
       <r>   12.5688    0.0000 </r>
       <r>   12.5688    0.0000 </r>
       <r>   12.6799    0.0000 </r>
       <r>   13.6569    0.0000 </r>
       <r>   13.6569    0.0000 </r>
       <r>   15.5083    0.0000 </r>
       <r>   15.5111    0.0000 </r>
       <r>   16.1450    0.0000 </r>
       <r>   16.3700    0.0000 </r>
       <r>   24.2545    0.0000 </r>
       <r>   24.7685    0.0000 </r>
       <r>   24.7685    0.0000 </r>
       <r>   26.4751    0.0000 </r>
       <r>   26.4751    0.0000 </r>
       <r>   26.5532    0.0000 </r>
       <r>   26.8408    0.0000 </r>
       <r>   26.9309    0.0000 </r>
       <r>   26.9309    0.0000 </r>
       <r>   27.8113    0.0000 </r>
      </set>
      <set comment="kpoint 18">
       <r>   -7.9877    1.0000 </r>
       <r>   -7.9632    1.0000 </r>
       <r>   -7.8394    1.0000 </r>
       <r>   -7.8056    1.0000 </r>
       <r>   -7.6803    1.0000 </r>
       <r>   -7.6803    1.0000 </r>
       <r>   -7.6350    1.0000 </r>
       <r>   -7.6350    1.0000 </r>
       <r>   -7.5913    1.0000 </r>
       <r>   -7.5771    1.0000 </r>
       <r>   -1.3044    1.0000 </r>
       <r>   -0.6314    1.0000 </r>
       <r>   10.4877    0.0000 </r>
       <r>   12.2452    0.0000 </r>
       <r>   12.7307    0.0000 </r>
       <r>   12.7307    0.0000 </r>
       <r>   13.4572    0.0000 </r>
       <r>   13.4572    0.0000 </r>
       <r>   15.6005    0.0000 </r>
       <r>   15.6259    0.0000 </r>
       <r>   16.0246    0.0000 </r>
       <r>   16.1943    0.0000 </r>
       <r>   24.6188    0.0000 </r>
       <r>   25.1413    0.0000 </r>
       <r>   25.1413    0.0000 </r>
       <r>   26.1556    0.0000 </r>
       <r>   26.5968    0.0000 </r>
       <r>   26.5968    0.0000 </r>
       <r>   26.6556    0.0000 </r>
       <r>   26.6556    0.0000 </r>
       <r>   27.2759    0.0000 </r>
       <r>   27.5380    0.0000 </r>
      </set>
      <set comment="kpoint 19">
       <r>   -7.9817    1.0000 </r>
       <r>   -7.9693    1.0000 </r>
       <r>   -7.8308    1.0000 </r>
       <r>   -7.8139    1.0000 </r>
       <r>   -7.6692    1.0000 </r>
       <r>   -7.6692    1.0000 </r>
       <r>   -7.6464    1.0000 </r>
       <r>   -7.6464    1.0000 </r>
       <r>   -7.5878    1.0000 </r>
       <r>   -7.5807    1.0000 </r>
       <r>   -1.1496    1.0000 </r>
       <r>   -0.8130    1.0000 </r>
       <r>   10.9264    0.0000 </r>
       <r>   11.8067    0.0000 </r>
       <r>   12.9007    0.0000 </r>
       <r>   12.9007    0.0000 </r>
       <r>   13.2643    0.0000 </r>
       <r>   13.2643    0.0000 </r>
       <r>   15.6978    0.0000 </r>
       <r>   15.7505    0.0000 </r>
       <r>   15.9099    0.0000 </r>
       <r>   16.0336    0.0000 </r>
       <r>   24.9913    0.0000 </r>
       <r>   25.5133    0.0000 </r>
       <r>   25.5133    0.0000 </r>
       <r>   25.7599    0.0000 </r>
       <r>   26.2446    0.0000 </r>
       <r>   26.2446    0.0000 </r>
       <r>   26.8502    0.0000 </r>
       <r>   26.8502    0.0000 </r>
       <r>   27.2887    0.0000 </r>
       <r>   27.2887    0.0000 </r>
      </set>
      <set comment="kpoint 20">
       <r>   -7.9755    1.0000 </r>
       <r>   -7.9755    1.0000 </r>
       <r>   -7.8223    1.0000 </r>
       <r>   -7.8223    1.0000 </r>
       <r>   -7.6578    1.0000 </r>
       <r>   -7.6578    1.0000 </r>
       <r>   -7.6578    1.0000 </r>
       <r>   -7.6578    1.0000 </r>
       <r>   -7.5842    1.0000 </r>
       <r>   -7.5842    1.0000 </r>
       <r>   -0.9858    1.0000 </r>
       <r>   -0.9858    1.0000 </r>
       <r>   11.3665    0.0000 </r>
       <r>   11.3665    0.0000 </r>
       <r>   13.0787    0.0000 </r>
       <r>   13.0787    0.0000 </r>
       <r>   13.0787    0.0000 </r>
       <r>   13.0787    0.0000 </r>
       <r>   15.8010    0.0000 </r>
       <r>   15.8010    0.0000 </r>
       <r>   15.8861    0.0000 </r>
       <r>   15.8861    0.0000 </r>
       <r>   25.3717    0.0000 </r>
       <r>   25.3717    0.0000 </r>
       <r>   25.8821    0.0000 </r>
       <r>   25.8821    0.0000 </r>
       <r>   25.8821    0.0000 </r>
       <r>   25.8821    0.0000 </r>
       <r>   27.0604    0.0000 </r>
       <r>   27.0604    0.0000 </r>
       <r>   27.0604    0.0000 </r>
       <r>   27.0604    0.0000 </r>
      </set>
      <set comment="kpoint 21">
       <r>   -7.9755    1.0000 </r>
       <r>   -7.9755    1.0000 </r>
       <r>   -7.8223    1.0000 </r>
       <r>   -7.8223    1.0000 </r>
       <r>   -7.6578    1.0000 </r>
       <r>   -7.6578    1.0000 </r>
       <r>   -7.6578    1.0000 </r>
       <r>   -7.6578    1.0000 </r>
       <r>   -7.5842    1.0000 </r>
       <r>   -7.5842    1.0000 </r>
       <r>   -0.9858    1.0000 </r>
       <r>   -0.9858    1.0000 </r>
       <r>   11.3665    0.0000 </r>
       <r>   11.3665    0.0000 </r>
       <r>   13.0787    0.0000 </r>
       <r>   13.0787    0.0000 </r>
       <r>   13.0787    0.0000 </r>
       <r>   13.0787    0.0000 </r>
       <r>   15.8010    0.0000 </r>
       <r>   15.8010    0.0000 </r>
       <r>   15.8861    0.0000 </r>
       <r>   15.8861    0.0000 </r>
       <r>   25.3717    0.0000 </r>
       <r>   25.3717    0.0000 </r>
       <r>   25.8821    0.0000 </r>
       <r>   25.8821    0.0000 </r>
       <r>   25.8821    0.0000 </r>
       <r>   25.8821    0.0000 </r>
       <r>   27.0604    0.0000 </r>
       <r>   27.0604    0.0000 </r>
       <r>   27.0604    0.0000 </r>
       <r>   27.0604    0.0000 </r>
      </set>
      <set comment="kpoint 22">
       <r>   -7.9750    1.0000 </r>
       <r>   -7.9750    1.0000 </r>
       <r>   -7.8221    1.0000 </r>
       <r>   -7.8221    1.0000 </r>
       <r>   -7.6583    1.0000 </r>
       <r>   -7.6583    1.0000 </r>
       <r>   -7.6579    1.0000 </r>
       <r>   -7.6579    1.0000 </r>
       <r>   -7.5841    1.0000 </r>
       <r>   -7.5841    1.0000 </r>
       <r>   -0.9820    1.0000 </r>
       <r>   -0.9820    1.0000 </r>
       <r>   11.3599    0.0000 </r>
       <r>   11.3599    0.0000 </r>
       <r>   13.0463    0.0000 </r>
       <r>   13.0463    0.0000 </r>
       <r>   13.0621    0.0000 </r>
       <r>   13.0621    0.0000 </r>
       <r>   15.8383    0.0000 </r>
       <r>   15.8383    0.0000 </r>
       <r>   15.9180    0.0000 </r>
       <r>   15.9180    0.0000 </r>
       <r>   25.2647    0.0000 </r>
       <r>   25.2647    0.0000 </r>
       <r>   25.8437    0.0000 </r>
       <r>   25.8437    0.0000 </r>
       <r>   25.9888    0.0000 </r>
       <r>   25.9888    0.0000 </r>
       <r>   26.9302    0.0000 </r>
       <r>   26.9302    0.0000 </r>
       <r>   27.0710    0.0000 </r>
       <r>   27.0710    0.0000 </r>
      </set>
      <set comment="kpoint 23">
       <r>   -7.9729    1.0000 </r>
       <r>   -7.9729    1.0000 </r>
       <r>   -7.8214    1.0000 </r>
       <r>   -7.8214    1.0000 </r>
       <r>   -7.6597    1.0000 </r>
       <r>   -7.6597    1.0000 </r>
       <r>   -7.6582    1.0000 </r>
       <r>   -7.6582    1.0000 </r>
       <r>   -7.5836    1.0000 </r>
       <r>   -7.5836    1.0000 </r>
       <r>   -0.9706    1.0000 </r>
       <r>   -0.9706    1.0000 </r>
       <r>   11.3396    0.0000 </r>
       <r>   11.3396    0.0000 </r>
       <r>   12.9540    0.0000 </r>
       <r>   12.9540    0.0000 </r>
       <r>   13.0160    0.0000 </r>
       <r>   13.0160    0.0000 </r>
       <r>   15.9456    0.0000 </r>
       <r>   15.9456    0.0000 </r>
       <r>   16.0107    0.0000 </r>
       <r>   16.0107    0.0000 </r>
       <r>   25.0550    0.0000 </r>
       <r>   25.0550    0.0000 </r>
       <r>   25.7338    0.0000 </r>
       <r>   25.7338    0.0000 </r>
       <r>   26.1957    0.0000 </r>
       <r>   26.1957    0.0000 </r>
       <r>   26.6233    0.0000 </r>
       <r>   26.6233    0.0000 </r>
       <r>   27.1069    0.0000 </r>
       <r>   27.1069    0.0000 </r>
      </set>
      <set comment="kpoint 24">
       <r>   -7.9698    1.0000 </r>
       <r>   -7.9698    1.0000 </r>
       <r>   -7.8204    1.0000 </r>
       <r>   -7.8204    1.0000 </r>
       <r>   -7.6620    1.0000 </r>
       <r>   -7.6620    1.0000 </r>
       <r>   -7.6587    1.0000 </r>
       <r>   -7.6587    1.0000 </r>
       <r>   -7.5830    1.0000 </r>
       <r>   -7.5830    1.0000 </r>
       <r>   -0.9517    1.0000 </r>
       <r>   -0.9517    1.0000 </r>
       <r>   11.3040    0.0000 </r>
       <r>   11.3040    0.0000 </r>
       <r>   12.8133    0.0000 </r>
       <r>   12.8133    0.0000 </r>
       <r>   12.9497    0.0000 </r>
       <r>   12.9497    0.0000 </r>
       <r>   16.1108    0.0000 </r>
       <r>   16.1108    0.0000 </r>
       <r>   16.1562    0.0000 </r>
       <r>   16.1562    0.0000 </r>
       <r>   24.8218    0.0000 </r>
       <r>   24.8218    0.0000 </r>
       <r>   25.5573    0.0000 </r>
       <r>   25.5573    0.0000 </r>
       <r>   26.2503    0.0000 </r>
       <r>   26.2503    0.0000 </r>
       <r>   26.4175    0.0000 </r>
       <r>   26.4175    0.0000 </r>
       <r>   27.1707    0.0000 </r>
       <r>   27.1707    0.0000 </r>
      </set>
      <set comment="kpoint 25">
       <r>   -7.9656    1.0000 </r>
       <r>   -7.9656    1.0000 </r>
       <r>   -7.8192    1.0000 </r>
       <r>   -7.8192    1.0000 </r>
       <r>   -7.6650    1.0000 </r>
       <r>   -7.6650    1.0000 </r>
       <r>   -7.6593    1.0000 </r>
       <r>   -7.6593    1.0000 </r>
       <r>   -7.5825    1.0000 </r>
       <r>   -7.5825    1.0000 </r>
       <r>   -0.9252    1.0000 </r>
       <r>   -0.9252    1.0000 </r>
       <r>   11.2507    0.0000 </r>
       <r>   11.2507    0.0000 </r>
       <r>   12.6377    0.0000 </r>
       <r>   12.6377    0.0000 </r>
       <r>   12.8747    0.0000 </r>
       <r>   12.8747    0.0000 </r>
       <r>   16.3211    0.0000 </r>
       <r>   16.3211    0.0000 </r>
       <r>   16.3447    0.0000 </r>
       <r>   16.3447    0.0000 </r>
       <r>   24.5847    0.0000 </r>
       <r>   24.5847    0.0000 </r>
       <r>   25.3116    0.0000 </r>
       <r>   25.3116    0.0000 </r>
       <r>   25.8753    0.0000 </r>
       <r>   25.8753    0.0000 </r>
       <r>   26.6203    0.0000 </r>
       <r>   26.6203    0.0000 </r>
       <r>   27.2786    0.0000 </r>
       <r>   27.2786    0.0000 </r>
      </set>
      <set comment="kpoint 26">
       <r>   -7.9613    1.0000 </r>
       <r>   -7.9613    1.0000 </r>
       <r>   -7.8178    1.0000 </r>
       <r>   -7.8178    1.0000 </r>
       <r>   -7.6689    1.0000 </r>
       <r>   -7.6689    1.0000 </r>
       <r>   -7.6604    1.0000 </r>
       <r>   -7.6604    1.0000 </r>
       <r>   -7.5820    1.0000 </r>
       <r>   -7.5820    1.0000 </r>
       <r>   -0.8912    1.0000 </r>
       <r>   -0.8912    1.0000 </r>
       <r>   11.1776    0.0000 </r>
       <r>   11.1776    0.0000 </r>
       <r>   12.4383    0.0000 </r>
       <r>   12.4383    0.0000 </r>
       <r>   12.8023    0.0000 </r>
       <r>   12.8023    0.0000 </r>
       <r>   16.5640    0.0000 </r>
       <r>   16.5640    0.0000 </r>
       <r>   16.5657    0.0000 </r>
       <r>   16.5657    0.0000 </r>
       <r>   24.3480    0.0000 </r>
       <r>   24.3480    0.0000 </r>
       <r>   24.9825    0.0000 </r>
       <r>   24.9825    0.0000 </r>
       <r>   25.5451    0.0000 </r>
       <r>   25.5451    0.0000 </r>
       <r>   26.7834    0.0000 </r>
       <r>   26.7834    0.0000 </r>
       <r>   27.4390    0.0000 </r>
       <r>   27.4390    0.0000 </r>
      </set>
      <set comment="kpoint 27">
       <r>   -7.9562    1.0000 </r>
       <r>   -7.9562    1.0000 </r>
       <r>   -7.8163    1.0000 </r>
       <r>   -7.8163    1.0000 </r>
       <r>   -7.6731    1.0000 </r>
       <r>   -7.6731    1.0000 </r>
       <r>   -7.6616    1.0000 </r>
       <r>   -7.6616    1.0000 </r>
       <r>   -7.5818    1.0000 </r>
       <r>   -7.5818    1.0000 </r>
       <r>   -0.8496    1.0000 </r>
       <r>   -0.8496    1.0000 </r>
       <r>   11.0833    0.0000 </r>
       <r>   11.0833    0.0000 </r>
       <r>   12.2236    0.0000 </r>
       <r>   12.2236    0.0000 </r>
       <r>   12.7413    0.0000 </r>
       <r>   12.7413    0.0000 </r>
       <r>   16.8115    0.0000 </r>
       <r>   16.8115    0.0000 </r>
       <r>   16.8317    0.0000 </r>
       <r>   16.8317    0.0000 </r>
       <r>   24.1148    0.0000 </r>
       <r>   24.1148    0.0000 </r>
       <r>   24.5824    0.0000 </r>
       <r>   24.5824    0.0000 </r>
       <r>   25.2687    0.0000 </r>
       <r>   25.2687    0.0000 </r>
       <r>   26.9122    0.0000 </r>
       <r>   26.9122    0.0000 </r>
       <r>   27.6533    0.0000 </r>
       <r>   27.6533    0.0000 </r>
      </set>
      <set comment="kpoint 28">
       <r>   -7.9497    1.0000 </r>
       <r>   -7.9497    1.0000 </r>
       <r>   -7.8147    1.0000 </r>
       <r>   -7.8147    1.0000 </r>
       <r>   -7.6775    1.0000 </r>
       <r>   -7.6775    1.0000 </r>
       <r>   -7.6628    1.0000 </r>
       <r>   -7.6628    1.0000 </r>
       <r>   -7.5820    1.0000 </r>
       <r>   -7.5820    1.0000 </r>
       <r>   -0.8005    1.0000 </r>
       <r>   -0.8005    1.0000 </r>
       <r>   10.9680    0.0000 </r>
       <r>   10.9680    0.0000 </r>
       <r>   11.9995    0.0000 </r>
       <r>   11.9995    0.0000 </r>
       <r>   12.6970    0.0000 </r>
       <r>   12.6970    0.0000 </r>
       <r>   17.0748    0.0000 </r>
       <r>   17.0748    0.0000 </r>
       <r>   17.1187    0.0000 </r>
       <r>   17.1187    0.0000 </r>
       <r>   23.8862    0.0000 </r>
       <r>   23.8862    0.0000 </r>
       <r>   24.1417    0.0000 </r>
       <r>   24.1417    0.0000 </r>
       <r>   25.0246    0.0000 </r>
       <r>   25.0246    0.0000 </r>
       <r>   27.0184    0.0000 </r>
       <r>   27.0184    0.0000 </r>
       <r>   27.9073    0.0000 </r>
       <r>   27.9073    0.0000 </r>
      </set>
      <set comment="kpoint 29">
       <r>   -7.9422    1.0000 </r>
       <r>   -7.9422    1.0000 </r>
       <r>   -7.8129    1.0000 </r>
       <r>   -7.8129    1.0000 </r>
       <r>   -7.6818    1.0000 </r>
       <r>   -7.6818    1.0000 </r>
       <r>   -7.6642    1.0000 </r>
       <r>   -7.6642    1.0000 </r>
       <r>   -7.5821    1.0000 </r>
       <r>   -7.5821    1.0000 </r>
       <r>   -0.7438    1.0000 </r>
       <r>   -0.7438    1.0000 </r>
       <r>   10.8339    0.0000 </r>
       <r>   10.8339    0.0000 </r>
       <r>   11.7702    0.0000 </r>
       <r>   11.7702    0.0000 </r>
       <r>   12.6714    0.0000 </r>
       <r>   12.6714    0.0000 </r>
       <r>   17.3494    0.0000 </r>
       <r>   17.3494    0.0000 </r>
       <r>   17.4206    0.0000 </r>
       <r>   17.4206    0.0000 </r>
       <r>   23.6629    0.0000 </r>
       <r>   23.6629    0.0000 </r>
       <r>   23.6909    0.0000 </r>
       <r>   23.6909    0.0000 </r>
       <r>   24.7974    0.0000 </r>
       <r>   24.7974    0.0000 </r>
       <r>   27.1152    0.0000 </r>
       <r>   27.1152    0.0000 </r>
       <r>   28.1855    0.0000 </r>
       <r>   28.1855    0.0000 </r>
      </set>
      <set comment="kpoint 30">
       <r>   -7.9339    1.0000 </r>
       <r>   -7.9339    1.0000 </r>
       <r>   -7.8116    1.0000 </r>
       <r>   -7.8116    1.0000 </r>
       <r>   -7.6871    1.0000 </r>
       <r>   -7.6871    1.0000 </r>
       <r>   -7.6658    1.0000 </r>
       <r>   -7.6658    1.0000 </r>
       <r>   -7.5829    1.0000 </r>
       <r>   -7.5829    1.0000 </r>
       <r>   -0.6797    1.0000 </r>
       <r>   -0.6797    1.0000 </r>
       <r>   10.6840    0.0000 </r>
       <r>   10.6840    0.0000 </r>
       <r>   11.5383    0.0000 </r>
       <r>   11.5383    0.0000 </r>
       <r>   12.6644    0.0000 </r>
       <r>   12.6644    0.0000 </r>
       <r>   17.6285    0.0000 </r>
       <r>   17.6285    0.0000 </r>
       <r>   17.7341    0.0000 </r>
       <r>   17.7341    0.0000 </r>
       <r>   23.2389    0.0000 </r>
       <r>   23.2389    0.0000 </r>
       <r>   23.4444    0.0000 </r>
       <r>   23.4444    0.0000 </r>
       <r>   24.5805    0.0000 </r>
       <r>   24.5805    0.0000 </r>
       <r>   27.2101    0.0000 </r>
       <r>   27.2101    0.0000 </r>
       <r>   28.4789    0.0000 </r>
       <r>   28.4789    0.0000 </r>
      </set>
      <set comment="kpoint 31">
       <r>   -7.9247    1.0000 </r>
       <r>   -7.9247    1.0000 </r>
       <r>   -7.8096    1.0000 </r>
       <r>   -7.8096    1.0000 </r>
       <r>   -7.6912    1.0000 </r>
       <r>   -7.6912    1.0000 </r>
       <r>   -7.6672    1.0000 </r>
       <r>   -7.6672    1.0000 </r>
       <r>   -7.5840    1.0000 </r>
       <r>   -7.5840    1.0000 </r>
       <r>   -0.6080    1.0000 </r>
       <r>   -0.6080    1.0000 </r>
       <r>   10.5222    0.0000 </r>
       <r>   10.5222    0.0000 </r>
       <r>   11.3060    0.0000 </r>
       <r>   11.3060    0.0000 </r>
       <r>   12.6744    0.0000 </r>
       <r>   12.6744    0.0000 </r>
       <r>   17.9055    0.0000 </r>
       <r>   17.9055    0.0000 </r>
       <r>   18.0577    0.0000 </r>
       <r>   18.0577    0.0000 </r>
       <r>   22.7993    0.0000 </r>
       <r>   22.7993    0.0000 </r>
       <r>   23.2349    0.0000 </r>
       <r>   23.2349    0.0000 </r>
       <r>   24.3741    0.0000 </r>
       <r>   24.3741    0.0000 </r>
       <r>   27.3090    0.0000 </r>
       <r>   27.3090    0.0000 </r>
       <r>   28.7833    0.0000 </r>
       <r>   28.7833    0.0000 </r>
      </set>
      <set comment="kpoint 32">
       <r>   -7.9150    1.0000 </r>
       <r>   -7.9150    1.0000 </r>
       <r>   -7.8084    1.0000 </r>
       <r>   -7.8084    1.0000 </r>
       <r>   -7.6951    1.0000 </r>
       <r>   -7.6951    1.0000 </r>
       <r>   -7.6690    1.0000 </r>
       <r>   -7.6690    1.0000 </r>
       <r>   -7.5859    1.0000 </r>
       <r>   -7.5859    1.0000 </r>
       <r>   -0.5289    1.0000 </r>
       <r>   -0.5289    1.0000 </r>
       <r>   10.3520    0.0000 </r>
       <r>   10.3520    0.0000 </r>
       <r>   11.0746    0.0000 </r>
       <r>   11.0746    0.0000 </r>
       <r>   12.6991    0.0000 </r>
       <r>   12.6991    0.0000 </r>
       <r>   18.1698    0.0000 </r>
       <r>   18.1698    0.0000 </r>
       <r>   18.3890    0.0000 </r>
       <r>   18.3890    0.0000 </r>
       <r>   22.3796    0.0000 </r>
       <r>   22.3796    0.0000 </r>
       <r>   23.0306    0.0000 </r>
       <r>   23.0306    0.0000 </r>
       <r>   24.1764    0.0000 </r>
       <r>   24.1764    0.0000 </r>
       <r>   27.4122    0.0000 </r>
       <r>   27.4122    0.0000 </r>
       <r>   29.0953    0.0000 </r>
       <r>   29.0956    0.0000 </r>
      </set>
      <set comment="kpoint 33">
       <r>   -7.9042    1.0000 </r>
       <r>   -7.9042    1.0000 </r>
       <r>   -7.8075    1.0000 </r>
       <r>   -7.8075    1.0000 </r>
       <r>   -7.6985    1.0000 </r>
       <r>   -7.6985    1.0000 </r>
       <r>   -7.6707    1.0000 </r>
       <r>   -7.6707    1.0000 </r>
       <r>   -7.5880    1.0000 </r>
       <r>   -7.5880    1.0000 </r>
       <r>   -0.4423    1.0000 </r>
       <r>   -0.4423    1.0000 </r>
       <r>   10.1766    0.0000 </r>
       <r>   10.1766    0.0000 </r>
       <r>   10.8453    0.0000 </r>
       <r>   10.8453    0.0000 </r>
       <r>   12.7365    0.0000 </r>
       <r>   12.7365    0.0000 </r>
       <r>   18.4069    0.0000 </r>
       <r>   18.4069    0.0000 </r>
       <r>   18.7270    0.0000 </r>
       <r>   18.7270    0.0000 </r>
       <r>   21.9956    0.0000 </r>
       <r>   21.9956    0.0000 </r>
       <r>   22.8338    0.0000 </r>
       <r>   22.8338    0.0000 </r>
       <r>   23.9896    0.0000 </r>
       <r>   23.9896    0.0000 </r>
       <r>   27.5225    0.0000 </r>
       <r>   27.5225    0.0000 </r>
       <r>   29.1579    0.0000 </r>
       <r>   29.1579    0.0000 </r>
      </set>
      <set comment="kpoint 34">
       <r>   -7.8923    1.0000 </r>
       <r>   -7.8923    1.0000 </r>
       <r>   -7.8069    1.0000 </r>
       <r>   -7.8069    1.0000 </r>
[...]
        <r>  0.2157  0.0116  0.0069  0.0116  0.0009  0.0010  0.0000  0.0010  0.0000 </r>
       </set>
       <set comment="band 12">
        <r>  0.2116  0.0077  0.0359  0.0077  0.0002  0.0032  0.0020  0.0032  0.0000 </r>
        <r>  0.2116  0.0077  0.0359  0.0077  0.0002  0.0032  0.0020  0.0032  0.0000 </r>
       </set>
       <set comment="band 13">
        <r>  0.1373  0.0196  0.0887  0.0196  0.0059  0.0003  0.0011  0.0003  0.0000 </r>
        <r>  0.1373  0.0196  0.0887  0.0196  0.0059  0.0003  0.0011  0.0003  0.0000 </r>
       </set>
       <set comment="band 14">
        <r>  0.0000  0.0954  0.0000  0.0954  0.0000  0.0026  0.0000  0.0026  0.0227 </r>
        <r>  0.0000  0.0954  0.0000  0.0954  0.0000  0.0026  0.0000  0.0026  0.0227 </r>
       </set>
       <set comment="band 15">
        <r>  0.0015  0.0454  0.0673  0.0454  0.0035  0.0047  0.0285  0.0047  0.0000 </r>
        <r>  0.0015  0.0454  0.0673  0.0454  0.0035  0.0047  0.0285  0.0047  0.0000 </r>
       </set>
       <set comment="band 16">
        <r>  0.0930  0.0375  0.0913  0.0375  0.0038  0.0031  0.0007  0.0031  0.0000 </r>
        <r>  0.0930  0.0375  0.0913  0.0375  0.0038  0.0031  0.0007  0.0031  0.0000 </r>
       </set>
       <set comment="band 17">
        <r>  0.0000  0.0958  0.0000  0.0958  0.0000  0.0100  0.0000  0.0100  0.0223 </r>
        <r>  0.0000  0.0958  0.0000  0.0958  0.0000  0.0100  0.0000  0.0100  0.0223 </r>
       </set>
       <set comment="band 18">
        <r>  0.0157  0.0801  0.1357  0.0801  0.0071  0.0015  0.0079  0.0015  0.0000 </r>
        <r>  0.0157  0.0801  0.1357  0.0801  0.0071  0.0015  0.0079  0.0015  0.0000 </r>
       </set>
       <set comment="band 19">
        <r>  0.0007  0.0008  0.0544  0.0008  0.0460  0.0019  0.0001  0.0019  0.0000 </r>
        <r>  0.0007  0.0008  0.0544  0.0008  0.0460  0.0019  0.0001  0.0019  0.0000 </r>
       </set>
       <set comment="band 20">
        <r>  0.0000  0.0268  0.0000  0.0268  0.0000  0.0431  0.0000  0.0431  0.0036 </r>
        <r>  0.0000  0.0268  0.0000  0.0268  0.0000  0.0431  0.0000  0.0431  0.0036 </r>
       </set>
       <set comment="band 21">
        <r>  0.0034  0.0588  0.0140  0.0588  0.0232  0.0109  0.0042  0.0109  0.0000 </r>
        <r>  0.0034  0.0588  0.0140  0.0588  0.0232  0.0109  0.0042  0.0109  0.0000 </r>
       </set>
       <set comment="band 22">
        <r>  0.0368  0.0017  0.0000  0.0017  0.0049  0.0178  0.0707  0.0178  0.0000 </r>
        <r>  0.0368  0.0017  0.0000  0.0017  0.0049  0.0178  0.0707  0.0178  0.0000 </r>
       </set>
       <set comment="band 23">
        <r>  0.0000  0.0207  0.0000  0.0207  0.0000  0.0004  0.0000  0.0004  0.1040 </r>
        <r>  0.0000  0.0207  0.0000  0.0207  0.0000  0.0004  0.0000  0.0004  0.1040 </r>
       </set>
       <set comment="band 24">
        <r>  0.0347  0.0198  0.0011  0.0198  0.0324  0.0123  0.0638  0.0123  0.0000 </r>
        <r>  0.0347  0.0198  0.0011  0.0198  0.0324  0.0123  0.0638  0.0123  0.0000 </r>
       </set>
       <set comment="band 25">
        <r>  0.0000  0.0119  0.0000  0.0119  0.0000  0.0143  0.0000  0.0143  0.0911 </r>
        <r>  0.0000  0.0119  0.0000  0.0119  0.0000  0.0143  0.0000  0.0143  0.0911 </r>
       </set>
       <set comment="band 26">
        <r>  0.0402  0.0120  0.0149  0.0120  0.0157  0.0400  0.0120  0.0400  0.0000 </r>
        <r>  0.0402  0.0120  0.0149  0.0120  0.0157  0.0400  0.0120  0.0400  0.0000 </r>
       </set>
       <set comment="band 27">
        <r>  0.0000  0.0146  0.0000  0.0146  0.0000  0.0340  0.0000  0.0340  0.0105 </r>
        <r>  0.0000  0.0146  0.0000  0.0146  0.0000  0.0340  0.0000  0.0340  0.0105 </r>
       </set>
       <set comment="band 28">
        <r>  0.0151  0.0173  0.0223  0.0173  0.0341  0.0195  0.0001  0.0195  0.0000 </r>
        <r>  0.0151  0.0173  0.0223  0.0173  0.0341  0.0195  0.0001  0.0195  0.0000 </r>
       </set>
       <set comment="band 29">
        <r>  0.0294  0.0022  0.0706  0.0022  0.0014  0.0298  0.0306  0.0298  0.0000 </r>
        <r>  0.0294  0.0022  0.0706  0.0022  0.0014  0.0298  0.0306  0.0298  0.0000 </r>
       </set>
       <set comment="band 30">
        <r>  0.0000  0.0312  0.0000  0.0312  0.0000  0.0012  0.0000  0.0012  0.0171 </r>
        <r>  0.0000  0.0312  0.0000  0.0312  0.0000  0.0012  0.0000  0.0012  0.0171 </r>
       </set>
       <set comment="band 31">
        <r>  0.0040  0.0007  0.0137  0.0007  0.0662  0.0000  0.0630  0.0000  0.0000 </r>
        <r>  0.0040  0.0007  0.0137  0.0007  0.0662  0.0000  0.0630  0.0000  0.0000 </r>
       </set>
       <set comment="band 32">
        <r>  0.0000  0.0230  0.0000  0.0230  0.0000  0.0294  0.0000  0.0294  0.0779 </r>
        <r>  0.0000  0.0230  0.0000  0.0230  0.0000  0.0294  0.0000  0.0294  0.0779 </r>
       </set>
      </set>
      <set comment="kpoint 219">
       <set comment="band 1">
        <r>  0.0000  0.0001  0.0000  0.0001  0.0000  0.2199  0.0000  0.2199  0.0458 </r>
        <r>  0.0000  0.0001  0.0000  0.0001  0.0000  0.2199  0.0000  0.2199  0.0458 </r>
       </set>
       <set comment="band 2">
        <r>  0.0000  0.0001  0.0001  0.0001  0.0914  0.0862  0.2212  0.0862  0.0000 </r>
        <r>  0.0000  0.0001  0.0001  0.0001  0.0914  0.0862  0.2212  0.0862  0.0000 </r>
       </set>
       <set comment="band 3">
        <r>  0.0000  0.0003  0.0000  0.0003  0.0000  0.0108  0.0000  0.0108  0.4647 </r>
        <r>  0.0000  0.0003  0.0000  0.0003  0.0000  0.0108  0.0000  0.0108  0.4647 </r>
       </set>
       <set comment="band 4">
        <r>  0.0001  0.0000  0.0000  0.0000  0.2069  0.1317  0.0182  0.1317  0.0000 </r>
        <r>  0.0001  0.0000  0.0000  0.0000  0.2069  0.1317  0.0182  0.1317  0.0000 </r>
       </set>
       <set comment="band 5">
        <r>  0.0002  0.0000  0.0000  0.0000  0.1535  0.0210  0.2932  0.0210  0.0000 </r>
        <r>  0.0002  0.0000  0.0000  0.0000  0.1535  0.0210  0.2932  0.0210  0.0000 </r>
       </set>
       <set comment="band 6">
        <r>  0.0004  0.0001  0.0001  0.0001  0.0011  0.1314  0.2240  0.1314  0.0000 </r>
        <r>  0.0004  0.0001  0.0001  0.0001  0.0011  0.1314  0.2240  0.1314  0.0000 </r>
       </set>
       <set comment="band 7">
        <r>  0.0000  0.0001  0.0000  0.0001  0.0000  0.0233  0.0000  0.0233  0.4438 </r>
        <r>  0.0000  0.0001  0.0000  0.0001  0.0000  0.0233  0.0000  0.0233  0.4438 </r>
       </set>
       <set comment="band 8">
        <r>  0.0000  0.0000  0.0001  0.0000  0.3977  0.0259  0.0419  0.0259  0.0000 </r>
        <r>  0.0000  0.0000  0.0001  0.0000  0.3977  0.0259  0.0419  0.0259  0.0000 </r>
       </set>
       <set comment="band 9">
        <r>  0.0002  0.0000  0.0000  0.0000  0.1289  0.0921  0.1795  0.0921  0.0000 </r>
        <r>  0.0002  0.0000  0.0000  0.0000  0.1289  0.0921  0.1795  0.0921  0.0000 </r>
       </set>
       <set comment="band 10">
        <r>  0.0000  0.0000  0.0000  0.0000  0.0000  0.2358  0.0000  0.2358  0.0221 </r>
        <r>  0.0000  0.0000  0.0000  0.0000  0.0000  0.2358  0.0000  0.2358  0.0221 </r>
       </set>
       <set comment="band 11">
        <r>  0.2141  0.0130  0.0062  0.0130  0.0011  0.0010  0.0001  0.0010  0.0000 </r>
        <r>  0.2141  0.0130  0.0062  0.0130  0.0011  0.0010  0.0001  0.0010  0.0000 </r>
       </set>
       <set comment="band 12">
        <r>  0.2154  0.0082  0.0350  0.0082  0.0001  0.0034  0.0018  0.0034  0.0000 </r>
        <r>  0.2154  0.0082  0.0350  0.0082  0.0001  0.0034  0.0018  0.0034  0.0000 </r>
       </set>
       <set comment="band 13">
        <r>  0.1340  0.0202  0.0844  0.0202  0.0068  0.0005  0.0017  0.0005  0.0000 </r>
        <r>  0.1340  0.0202  0.0844  0.0202  0.0068  0.0005  0.0017  0.0005  0.0000 </r>
       </set>
       <set comment="band 14">
        <r>  0.0000  0.0957  0.0000  0.0957  0.0000  0.0024  0.0000  0.0024  0.0215 </r>
        <r>  0.0000  0.0957  0.0000  0.0957  0.0000  0.0024  0.0000  0.0024  0.0215 </r>
       </set>
       <set comment="band 15">
        <r>  0.0021  0.0444  0.0715  0.0444  0.0036  0.0048  0.0271  0.0048  0.0000 </r>
        <r>  0.0021  0.0444  0.0715  0.0444  0.0036  0.0048  0.0271  0.0048  0.0000 </r>
       </set>
       <set comment="band 16">
        <r>  0.0949  0.0371  0.0915  0.0371  0.0038  0.0029  0.0007  0.0029  0.0000 </r>
        <r>  0.0949  0.0371  0.0915  0.0371  0.0038  0.0029  0.0007  0.0029  0.0000 </r>
       </set>
       <set comment="band 17">
        <r>  0.0000  0.0969  0.0000  0.0969  0.0000  0.0099  0.0000  0.0099  0.0209 </r>
        <r>  0.0000  0.0969  0.0000  0.0969  0.0000  0.0099  0.0000  0.0099  0.0209 </r>
       </set>
       <set comment="band 18">
        <r>  0.0214  0.0776  0.1177  0.0776  0.0105  0.0024  0.0063  0.0024  0.0000 </r>
        <r>  0.0214  0.0776  0.1177  0.0776  0.0105  0.0024  0.0063  0.0024  0.0000 </r>
       </set>
       <set comment="band 19">
        <r>  0.0005  0.0000  0.0682  0.0000  0.0468  0.0005  0.0014  0.0005  0.0000 </r>
        <r>  0.0005  0.0000  0.0682  0.0000  0.0468  0.0005  0.0014  0.0005  0.0000 </r>
       </set>
       <set comment="band 20">
        <r>  0.0000  0.0254  0.0000  0.0254  0.0000  0.0455  0.0000  0.0455  0.0038 </r>
        <r>  0.0000  0.0254  0.0000  0.0254  0.0000  0.0455  0.0000  0.0455  0.0038 </r>
       </set>
       <set comment="band 21">
        <r>  0.0066  0.0527  0.0133  0.0527  0.0273  0.0133  0.0024  0.0133  0.0000 </r>
        <r>  0.0066  0.0527  0.0133  0.0527  0.0273  0.0133  0.0024  0.0133  0.0000 </r>
       </set>
       <set comment="band 22">
        <r>  0.0371  0.0005  0.0039  0.0005  0.0019  0.0192  0.0693  0.0192  0.0000 </r>
        <r>  0.0371  0.0005  0.0039  0.0005  0.0019  0.0192  0.0693  0.0192  0.0000 </r>
       </set>
       <set comment="band 23">
        <r>  0.0000  0.0197  0.0000  0.0197  0.0000  0.0004  0.0000  0.0004  0.1029 </r>
        <r>  0.0000  0.0197  0.0000  0.0197  0.0000  0.0004  0.0000  0.0004  0.1029 </r>
       </set>
       <set comment="band 24">
        <r>  0.0286  0.0289  0.0009  0.0289  0.0256  0.0122  0.0658  0.0122  0.0000 </r>
        <r>  0.0286  0.0289  0.0009  0.0289  0.0256  0.0122  0.0658  0.0122  0.0000 </r>
       </set>
       <set comment="band 25">
        <r>  0.0000  0.0118  0.0000  0.0118  0.0000  0.0133  0.0000  0.0133  0.0862 </r>
        <r>  0.0000  0.0118  0.0000  0.0118  0.0000  0.0133  0.0000  0.0133  0.0862 </r>
       </set>
       <set comment="band 26">
        <r>  0.0172  0.0138  0.0267  0.0138  0.0395  0.0205  0.0007  0.0205  0.0000 </r>
        <r>  0.0172  0.0138  0.0267  0.0138  0.0395  0.0205  0.0007  0.0205  0.0000 </r>
       </set>
       <set comment="band 27">
        <r>  0.0000  0.0150  0.0000  0.0150  0.0000  0.0339  0.0000  0.0339  0.0085 </r>
        <r>  0.0000  0.0150  0.0000  0.0150  0.0000  0.0339  0.0000  0.0339  0.0085 </r>
       </set>
       <set comment="band 28">
        <r>  0.0351  0.0129  0.0178  0.0129  0.0163  0.0392  0.0118  0.0392  0.0000 </r>
        <r>  0.0351  0.0129  0.0178  0.0129  0.0163  0.0392  0.0118  0.0392  0.0000 </r>
       </set>
       <set comment="band 29">
        <r>  0.0304  0.0021  0.0705  0.0021  0.0011  0.0262  0.0317  0.0262  0.0000 </r>
        <r>  0.0304  0.0021  0.0705  0.0021  0.0011  0.0262  0.0317  0.0262  0.0000 </r>
       </set>
       <set comment="band 30">
        <r>  0.0000  0.0321  0.0000  0.0321  0.0000  0.0011  0.0000  0.0011  0.0207 </r>
        <r>  0.0000  0.0321  0.0000  0.0321  0.0000  0.0011  0.0000  0.0011  0.0207 </r>
       </set>
       <set comment="band 31">
        <r>  0.0032  0.0007  0.0164  0.0007  0.0556  0.0000  0.0624  0.0000  0.0000 </r>
        <r>  0.0032  0.0007  0.0164  0.0007  0.0556  0.0000  0.0624  0.0000  0.0000 </r>
       </set>
       <set comment="band 32">
        <r>  0.0000  0.0220  0.0000  0.0220  0.0000  0.0279  0.0000  0.0279  0.0774 </r>
        <r>  0.0000  0.0220  0.0000  0.0220  0.0000  0.0279  0.0000  0.0279  0.0774 </r>
       </set>
      </set>
      <set comment="kpoint 220">
       <set comment="band 1">
        <r>  0.0000  0.0001  0.0000  0.0001  0.0000  0.2281  0.0000  0.2281  0.0290 </r>
        <r>  0.0000  0.0001  0.0000  0.0001  0.0000  0.2281  0.0000  0.2281  0.0290 </r>
       </set>
       <set comment="band 2">
        <r>  0.0001  0.0001  0.0001  0.0001  0.1030  0.0977  0.1864  0.0977  0.0000 </r>
        <r>  0.0001  0.0001  0.0001  0.0001  0.1030  0.0977  0.1864  0.0977  0.0000 </r>
       </set>
       <set comment="band 3">
        <r>  0.0000  0.0003  0.0000  0.0003  0.0000  0.0123  0.0000  0.0123  0.4622 </r>
        <r>  0.0000  0.0003  0.0000  0.0003  0.0000  0.0123  0.0000  0.0123  0.4622 </r>
       </set>
       <set comment="band 4">
        <r>  0.0000  0.0000  0.0001  0.0000  0.3605  0.0538  0.0200  0.0538  0.0000 </r>
        <r>  0.0000  0.0000  0.0001  0.0000  0.3605  0.0538  0.0200  0.0538  0.0000 </r>
       </set>
       <set comment="band 5">
        <r>  0.0003  0.0000  0.0000  0.0000  0.0144  0.0998  0.2745  0.0998  0.0000 </r>
        <r>  0.0003  0.0000  0.0000  0.0000  0.0144  0.0998  0.2745  0.0998  0.0000 </r>
       </set>
       <set comment="band 6">
        <r>  0.0003  0.0001  0.0002  0.0001  0.0086  0.1337  0.2114  0.1337  0.0000 </r>
        <r>  0.0003  0.0001  0.0002  0.0001  0.0086  0.1337  0.2114  0.1337  0.0000 </r>
       </set>
       <set comment="band 7">
        <r>  0.0000  0.0001  0.0000  0.0001  0.0000  0.0148  0.0000  0.0148  0.4611 </r>
        <r>  0.0000  0.0001  0.0000  0.0001  0.0000  0.0148  0.0000  0.0148  0.4611 </r>
       </set>
       <set comment="band 8">
        <r>  0.0000  0.0000  0.0001  0.0000  0.3781  0.0119  0.0896  0.0119  0.0000 </r>
        <r>  0.0000  0.0000  0.0001  0.0000  0.3781  0.0119  0.0896  0.0119  0.0000 </r>
       </set>
       <set comment="band 9">
        <r>  0.0002  0.0000  0.0000  0.0000  0.1138  0.0913  0.1965  0.0913  0.0000 </r>
        <r>  0.0002  0.0000  0.0000  0.0000  0.1138  0.0913  0.1965  0.0913  0.0000 </r>
       </set>
       <set comment="band 10">
        <r>  0.0000  0.0000  0.0000  0.0000  0.0000  0.2344  0.0000  0.2344  0.0251 </r>
        <r>  0.0000  0.0000  0.0000  0.0000  0.0000  0.2344  0.0000  0.2344  0.0251 </r>
       </set>
       <set comment="band 11">
        <r>  0.2124  0.0144  0.0055  0.0144  0.0013  0.0010  0.0001  0.0010  0.0000 </r>
        <r>  0.2124  0.0144  0.0055  0.0144  0.0013  0.0010  0.0001  0.0010  0.0000 </r>
       </set>
       <set comment="band 12">
        <r>  0.2206  0.0086  0.0337  0.0086  0.0001  0.0035  0.0016  0.0035  0.0000 </r>
        <r>  0.2206  0.0086  0.0337  0.0086  0.0001  0.0035  0.0016  0.0035  0.0000 </r>
       </set>
       <set comment="band 13">
        <r>  0.1289  0.0209  0.0809  0.0209  0.0079  0.0006  0.0023  0.0006  0.0000 </r>
        <r>  0.1289  0.0209  0.0809  0.0209  0.0079  0.0006  0.0023  0.0006  0.0000 </r>
       </set>
       <set comment="band 14">
        <r>  0.0000  0.0961  0.0000  0.0961  0.0000  0.0022  0.0000  0.0022  0.0201 </r>
        <r>  0.0000  0.0961  0.0000  0.0961  0.0000  0.0022  0.0000  0.0022  0.0201 </r>
       </set>
       <set comment="band 15">
        <r>  0.0026  0.0437  0.0755  0.0437  0.0036  0.0049  0.0256  0.0049  0.0000 </r>
        <r>  0.0026  0.0437  0.0755  0.0437  0.0036  0.0049  0.0256  0.0049  0.0000 </r>
       </set>
       <set comment="band 16">
        <r>  0.0971  0.0370  0.0913  0.0370  0.0037  0.0026  0.0007  0.0026  0.0000 </r>
        <r>  0.0971  0.0370  0.0913  0.0370  0.0037  0.0026  0.0007  0.0026  0.0000 </r>
       </set>
       <set comment="band 17">
        <r>  0.0000  0.0980  0.0000  0.0980  0.0000  0.0098  0.0000  0.0098  0.0196 </r>
        <r>  0.0000  0.0980  0.0000  0.0980  0.0000  0.0098  0.0000  0.0098  0.0196 </r>
       </set>
       <set comment="band 18">
        <r>  0.0254  0.0733  0.1049  0.0733  0.0133  0.0029  0.0054  0.0029  0.0000 </r>
        <r>  0.0254  0.0733  0.1049  0.0733  0.0133  0.0029  0.0054  0.0029  0.0000 </r>
       </set>
       <set comment="band 19">
        <r>  0.0039  0.0005  0.0734  0.0005  0.0467  0.0000  0.0037  0.0000  0.0000 </r>
        <r>  0.0039  0.0005  0.0734  0.0005  0.0467  0.0000  0.0037  0.0000  0.0000 </r>
       </set>
       <set comment="band 20">
        <r>  0.0000  0.0241  0.0000  0.0241  0.0000  0.0476  0.0000  0.0476  0.0037 </r>
        <r>  0.0000  0.0241  0.0000  0.0241  0.0000  0.0476  0.0000  0.0476  0.0037 </r>
       </set>
       <set comment="band 21">
        <r>  0.0097  0.0477  0.0128  0.0477  0.0301  0.0152  0.0016  0.0152  0.0000 </r>
        <r>  0.0097  0.0477  0.0128  0.0477  0.0301  0.0152  0.0016  0.0152  0.0000 </r>
       </set>
       <set comment="band 22">
        <r>  0.0345  0.0000  0.0115  0.0000  0.0006  0.0195  0.0663  0.0195  0.0000 </r>
        <r>  0.0345  0.0000  0.0115  0.0000  0.0006  0.0195  0.0663  0.0195  0.0000 </r>
       </set>
       <set comment="band 23">
        <r>  0.0000  0.0186  0.0000  0.0186  0.0000  0.0004  0.0000  0.0004  0.1017 </r>
        <r>  0.0000  0.0186  0.0000  0.0186  0.0000  0.0004  0.0000  0.0004  0.1017 </r>
       </set>
       <set comment="band 24">
        <r>  0.0187  0.0402  0.0001  0.0402  0.0148  0.0156  0.0638  0.0156  0.0000 </r>
        <r>  0.0187  0.0402  0.0001  0.0402  0.0148  0.0156  0.0638  0.0156  0.0000 </r>
       </set>
       <set comment="band 25">
        <r>  0.0240  0.0070  0.0301  0.0070  0.0494  0.0173  0.0043  0.0173  0.0000 </r>
        <r>  0.0240  0.0070  0.0301  0.0070  0.0494  0.0173  0.0043  0.0173  0.0000 </r>
       </set>
       <set comment="band 26">
        <r>  0.0000  0.0115  0.0000  0.0115  0.0000  0.0126  0.0000  0.0126  0.0811 </r>
        <r>  0.0000  0.0115  0.0000  0.0115  0.0000  0.0126  0.0000  0.0126  0.0811 </r>
       </set>
       <set comment="band 27">
        <r>  0.0000  0.0155  0.0000  0.0155  0.0000  0.0336  0.0000  0.0336  0.0066 </r>
        <r>  0.0000  0.0155  0.0000  0.0155  0.0000  0.0336  0.0000  0.0336  0.0066 </r>
       </set>
       <set comment="band 28">
        <r>  0.0307  0.0132  0.0208  0.0132  0.0168  0.0385  0.0114  0.0385  0.0000 </r>
        <r>  0.0307  0.0132  0.0208  0.0132  0.0168  0.0385  0.0114  0.0385  0.0000 </r>
       </set>
       <set comment="band 29">
        <r>  0.0306  0.0017  0.0720  0.0017  0.0010  0.0236  0.0325  0.0236  0.0000 </r>
        <r>  0.0306  0.0017  0.0720  0.0017  0.0010  0.0236  0.0325  0.0236  0.0000 </r>
       </set>
       <set comment="band 30">
        <r>  0.0000  0.0331  0.0000  0.0331  0.0000  0.0009  0.0000  0.0009  0.0247 </r>
        <r>  0.0000  0.0331  0.0000  0.0331  0.0000  0.0009  0.0000  0.0009  0.0247 </r>
       </set>
       <set comment="band 31">
        <r>  0.0024  0.0008  0.0193  0.0008  0.0453  0.0000  0.0599  0.0000  0.0000 </r>
        <r>  0.0024  0.0008  0.0193  0.0008  0.0453  0.0000  0.0599  0.0000  0.0000 </r>
       </set>
       <set comment="band 32">
        <r>  0.0000  0.0211  0.0000  0.0211  0.0000  0.0264  0.0000  0.0264  0.0761 </r>
        <r>  0.0000  0.0211  0.0000  0.0211  0.0000  0.0264  0.0000  0.0264  0.0761 </r>
       </set>
      </set>
     </set>
    </set>
   </array>
  </projected>
 </calculation>
 <structure name="finalpos" >
  <crystal>
   <varray name="basis" >
    <v>       3.29841000       0.00000000       0.00000000 </v>
    <v>       0.00000000       3.29841000       0.00000000 </v>
    <v>       0.00000000       0.00000000       5.06256000 </v>
   </varray>
   <i name="volume">     55.07816469 </i>
   <varray name="rec_basis" >
    <v>       0.30317638      -0.00000000      -0.00000000 </v>
    <v>       0.00000000       0.30317638      -0.00000000 </v>
    <v>       0.00000000       0.00000000       0.19752852 </v>
   </varray>
  </crystal>
  <varray name="positions" >
   <v>       0.00000000       0.00000000       0.00000000 </v>
   <v>       0.50000000       0.50000000       0.50000000 </v>
  </varray>
 </structure>
</modeling>
