
:LABEL1: Calculations in /home/wph6/DeltaTest4.0/AdditionalWIEN2k/N_F_StillHigher_RMT/AlN_ZB
:LABEL2: on node15.timewarp at Sat Mar 25 18:35:08 PDT 2017
:LABEL3: using WIEN2k_14.2 (Release 15/10/2014) in /home/wph6/WIEN2k
:LABEL4: using the command: run_lapw -cc 0.00001 -ec 0.00001 -p -so


            ---------
:ITE017: 17. ITERATION
            ---------

:NATO :    2 INDEPENDENT AND    2 TOTAL ATOMS IN UNITCELL
       SUBSTANCE: AlN_ZB                                                      

       LATTICE                      = F   
:POT  : POTENTIAL OPTION EX_PBE EC_PBE VX_PBE VC_PBE
:LAT  : LATTICE CONSTANTS=  8.27700  8.27700  8.27700    1.571    1.571    1.571
:VOL  : UNIT CELL VOLUME =     141.76189
       MODE OF CALCULATION IS       = RELA
       NON-SPINPOLARIZED CALCULATION
:IFFT  : FFT-parameters:   64   64   64 Factor: 2.00
       ATOMNUMBER=  1 Al         VCOUL-ZERO = -0.99542E-01
       ATOMNUMBER=  2 N          VCOUL-ZERO =  0.27400E+00
:FIT001: LUSE= 13 SIGMA OF V-XC FIT FOR ATOM  1  0.1132030E-01
:FIT001: LUSE= 13 SIGMA OF V-XC FIT FOR ATOM  1  0.1132030E-01
:FIT002: LUSE= 13 SIGMA OF V-XC FIT FOR ATOM  2  0.2257065E-03
:FIT002: LUSE= 13 SIGMA OF V-XC FIT FOR ATOM  2  0.2257065E-03
:DEN  : DENSITY INTEGRAL  =          -283.47301531   (Ry)
       ELS_POTENTIAL_AT Z=0 and Z=0.5:  -0.94714  -0.94714
       ELS_POTENTIAL_AT Y=0 and Y=0.5:   0.00000   0.00000
:VZERO:v0,v0c,v0x  -1.64121  -0.94714  -0.69408 v5,v5c,v5x  -1.64121  -0.94714  -0.69408
:VZERY:v0,v0c,v0x  -0.79265   0.00000  -0.79265 v5,v5c,v5x  -0.79265   0.00000  -0.79265
:VZERX:v0,v0c,v0x  -0.79265   0.00000  -0.79265 v5,v5c,v5x  -0.79265   0.00000  -0.79265

          ATOMIC SPHERE DEPENDENT PARAMETERS FOR ATOM  Al        
:e__0001: OVERALL ENERGY PARAMETER IS    0.2506
          OVERALL BASIS SET ON ATOM IS LAPW
:E0_0001: E( 0)=    0.2506
             APW+lo
:E0_0001: E( 0)=   -6.9499   E(BOTTOM)=   -7.032   E(TOP)=   -6.868  1  2   171
             LOCAL ORBITAL
:E1_0001: E( 1)=    0.2506
             APW+lo
:E1_0001: E( 1)=   -4.1308   E(BOTTOM)=   -4.257   E(TOP)=   -4.004  0  1   169
             LOCAL ORBITAL

          ATOMIC SPHERE DEPENDENT PARAMETERS FOR ATOM  N         
:e__0002: OVERALL ENERGY PARAMETER IS    0.2506
          OVERALL BASIS SET ON ATOM IS LAPW
:E0_0002: E( 0)=   -1.1600   E(BOTTOM)=   -1.942   E(TOP)= -200.000  1 -1   200
             APW+lo
:E0_0002: E( 0)=    0.6506
             LOCAL ORBITAL
:E1_0002: E( 1)=    0.2506
             APW+lo

       K=   0.00000   0.00000   0.00000            1
:RKM  : MATRIX SIZE   738LOs:  13  RKM= 9.86  WEIGHT= 1.00  PGR:    
       EIGENVALUES ARE:
:EIG00001:      -6.9312982   -4.0991221   -4.0991221   -4.0991221   -0.6472515
:EIG00006:       0.4505643    0.4505643    0.4505643    0.7535873    1.3678182
:EIG00011:       1.3678182    1.3678182    1.7450466    1.7450466    1.8480697
:EIG00016:       1.8480697    1.8480697    1.9982066    2.3548071    2.9946494
:EIG00021:       2.9946494    2.9946494    3.7321612    3.7321612    3.7321612
:EIG00026:       3.8502132    3.8502132    4.1264983    4.1264983    4.1264983
:EIG00031:       4.8231000    5.0495992    5.0495992    5.0495992    5.3290615
:EIG00036:       5.3290615    5.3290615    5.3323514    5.3323514    5.6374908
:EIG00041:       5.6374908    5.6571215    5.8190345    5.8190345    5.8190345
:EIG00046:       5.9014993    5.9014993    5.9014993    5.9603177    5.9603177
 
:EIG00051:       5.9603177    6.1526745    6.1526745    6.1526745    6.3786669
:EIG00056:       6.3786669    6.3786669    6.4758658    6.5723627    6.7400759
:EIG00061:       6.7400759    6.7400759    8.2832328    8.4750149    8.4750149
:EIG00066:       8.4750149    8.5231813    8.5231813    9.1923658    9.2640066
:EIG00071:       9.2640066    9.2640066    9.9069861    9.9069861    9.9763475
:EIG00076:       9.9763475    9.9763475   10.0552030   10.0552030   10.0552030
:EIG00081:      10.1847466   10.1847466   10.1847466   10.4038877   10.4038877
:EIG00086:      10.4140969   10.4140969   10.4140969
       ********************************************************

:KPT   :      NUMBER OF K-POINTS:    1661
   0.0   0.0 angle (M,z), angle (M,x) deg
 RELATIVISTIC LOs:
 on atom            1 e(           1 )=  -4.14549999999978     
 
 RELATIVISTIC LOs:
 on atom            2 e(           1 )=  0.300000000000000     
 
 
        SPIN-ORBIT EIGENVALUES:
     K=   0.00000   0.00000   0.00000            1
      MATRIX SIZE=  188   WEIGHT= 1.00
     EIGENVALUES ARE:
          -6.9312982   -6.9312982   -4.1206297   -4.1206297   -4.0883858
          -4.0883858   -4.0883858   -4.0883858   -0.6472515   -0.6472515
           0.4496356    0.4496356    0.4510284    0.4510284    0.4510284
           0.4510284    0.7535873    0.7535873    1.3653884    1.3653884
           1.3690367    1.3690367    1.3690367    1.3690367    1.7450466
           1.7450466    1.7450466    1.7450466    1.8477841    1.8477841
           1.8482133    1.8482133    1.8482133    1.8482133    1.9982066
           1.9982066    2.3548071    2.3548071    2.9929470    2.9929470

           2.9955025    2.9955025    2.9955025    2.9955025    3.7318801
           3.7318801    3.7323028    3.7323028    3.7323028    3.7323028
           3.8502133    3.8502133    3.8502133    3.8502133    4.1264910
           4.1264910    4.1265019    4.1265019    4.1265019    4.1265019
           4.8231000    4.8231000    5.0489197    5.0489197    5.0499381
           5.0499381    5.0499381    5.0499381    5.3285785    5.3285785
           5.3293015    5.3293015    5.3293015    5.3293015    5.3323541
           5.3323541    5.3323541    5.3323541    5.6374908    5.6374908

           5.6374908    5.6374908    5.6571215    5.6571215    5.8190302
           5.8190302    5.8190302    5.8190302    5.8190432    5.8190432
           5.9014936    5.9014936    5.9015021    5.9015021    5.9015021
           5.9015021    5.9603137    5.9603137    5.9603197    5.9603197
           5.9603197    5.9603197    6.1511775    6.1511775    6.1534243
           6.1534243    6.1534243    6.1534243    6.3785896    6.3785896
           6.3787058    6.3787058    6.3787058    6.3787058    6.4758658
           6.4758658    6.5723627    6.5723627    6.7384706    6.7384706

           6.7408860    6.7408860    6.7408860    6.7408860    8.2832328
           8.2832328    8.4746934    8.4746934    8.4751760    8.4751760
           8.4751760    8.4751760    8.5231813    8.5231813    8.5231813
           8.5231813    9.1923658    9.1923658    9.2638148    9.2638148
           9.2641026    9.2641026    9.2641026    9.2641026    9.9069861
           9.9069861    9.9069861    9.9069861    9.9762545    9.9762545
           9.9763943    9.9763943    9.9763943    9.9763943
       ********************************************************
       Insulator, EF-inconsistency corrected
:GAP  :    0.2434 Ry =     3.310 eV   (provided you have a proper k-mesh)
         Bandranges (emin - emax) and occupancy:
:BAN00006:   6   -4.088972   -4.088386  1.00000000
:BAN00007:   7   -4.088768   -4.088386  1.00000000
:BAN00008:   8   -4.088736   -4.088386  1.00000000
:BAN00009:   9   -0.647252   -0.448170  1.00000000
:BAN00010:  10   -0.647252   -0.447890  1.00000000
:BAN00011:  11    0.022795    0.449636  1.00000000
:BAN00012:  12    0.022795    0.449636  1.00000000
:BAN00013:  13    0.170565    0.451028  1.00000000
:BAN00014:  14    0.170567    0.451028  1.00000000
:BAN00015:  15    0.253400    0.451028  1.00000000
:BAN00016:  16    0.254163    0.451028  1.00000000
:BAN00017:  17    0.694432    1.036864  0.00000000
:BAN00018:  18    0.694432    1.036914  0.00000000
:BAN00019:  19    1.072869    1.365388  0.00000000
:BAN00020:  20    1.073068    1.365388  0.00000000
:BAN00021:  21    1.229562    1.469163  0.00000000
        Energy to separate low and high energystates:   -0.02721


:NOE  : NUMBER OF ELECTRONS          =  16.000

:FER  : F E R M I - ENERGY(TETRAH.M.)=   0.4510283786
:GMA  : POTENTIAL AND CHARGE CUT-OFF  12.00 Ry**.5
 
 
 
 
:POS001: ATOM    1 X,Y,Z = 0.00000 0.00000 0.00000  MULT= 1  ZZ= 13.000  Al
 
       LMMAX  6
       LM=   0 0  4 0  4 4  6 0  6 4 -3 2
 
:CHA001: TOTAL VALENCE CHARGE INSIDE SPHERE   1 =   8.5969    (RMT=  1.7500 )
:PCS001: PARTIAL CHARGES SPHERE =  1 S,P,D,F,      D-EG,D-T2G
:QTL001: 2.2417 6.2503 0.0932 0.0097 0.0000 0.0000 0.0000 0.0185 0.0745 0.0000 0.0000 0.0000
        Q-s-low E-s-low   Q-p-low E-p-low   Q-d-low E-d-low   Q-f-low E-f-low
:EPL001:  2.0460 -6.7725    6.0082 -4.0738    0.0125 -0.4868    0.0019 -0.5153
        Q-s-hi  E-s-hi    Q-p-hi  E-p-hi    Q-d-hi  E-d-hi    Q-f-hi  E-f-hi
:EPH001:  0.1955  0.1674    0.2424  0.2893    0.0808  0.3248    0.0079  0.3131
 
 
 
 
:POS002: ATOM    2 X,Y,Z = 0.25000 0.25000 0.25000  MULT= 1  ZZ=  7.000  N
 
       LMMAX  6
       LM=   0 0  4 0  4 4  6 0  6 4 -3 2
 
:CHA002: TOTAL VALENCE CHARGE INSIDE SPHERE   2 =   3.7166    (RMT=  1.4900 )
:PCS002: PARTIAL CHARGES SPHERE =  2 S,P,D,F,      D-EG,D-T2G
:QTL002: 1.1764 2.5350 0.0045 0.0000 0.0000 0.0000 0.0000 0.0010 0.0035 0.0000 0.0000 0.0000
        Q-s-low E-s-low   Q-p-low E-p-low   Q-d-low E-d-low   Q-f-low E-f-low
:EPL002:  1.1048 -0.5027    0.0041 -0.8967    0.0000 10.0000    0.0000 10.0000
        Q-s-hi  E-s-hi    Q-p-hi  E-p-hi    Q-d-hi  E-d-hi    Q-f-hi  E-f-hi
:EPH002:  0.0717  0.1968    2.5312  0.3009    0.0043  0.2844    0.0000 10.0000
 
:CHA  : TOTAL VALENCE CHARGE INSIDE UNIT CELL =      16.000000
 
:SUM  : SUM OF EIGENVALUES =         -37.818138432
 

        1.ATOM      Al                    1 CORE STATES
:1S 001: 1S                -110.035202900 Ry

        2.ATOM      N                     1 CORE STATES
:1S 002: 1S                 -27.001961984 Ry
:CINT001 Core Integral Atom   1    2.000000
:CINT002 Core Integral Atom   2    1.999995

       DENSITY AT NUCLEUS
        JATOM        VALENCE       SEMI-CORE          CORE           TOTAL
:RTO001:   1       97.491790        0.000000     1392.859653     1490.351443
:RTO002:   2        8.604552        0.000000      200.425841      209.030393
     
       CHARGES OF NEW CHARGE DENSITY
:NTO   : INTERSTITIAL CHARGE =     3.686491
:NTO001: CHARGE SPHERE  1    =    10.596807
:NTO002: CHARGE SPHERE  2    =     5.716697

:NEC01: NUCLEAR AND ELECTRONIC CHARGE     20.00000    19.99999
     
       CHARGES OF OLD CHARGE DENSITY
:OTO   : INTERSTITIAL CHARGE =     3.686497
:OTO001: CHARGE SPHERE  1    =    10.596830
:OTO002: CHARGE SPHERE  2    =     5.716673

:NEC02: NUCLEAR AND ELECTRONIC CHARGE     20.00000    20.00000
     
       CONVERGENCE TEST
:DTO001: DIFFERENCE IN SPHERE  1 =  0.0000313
:DTO002: DIFFERENCE IN SPHERE  2 =  0.0000556

:DIS  :  CHARGE DISTANCE       ( 0.0000556 for atom    2 spin 1)      0.0000434
:BIG check (qbig,qrms,qtot)    0.185D-04   0.319D-04   0.434D-04
 
******************************************************
* MULTISECANT MIXING VER6 RELEASE 6.0 OPTIONS        *
* Standard Mode with controls                        *
* Regularization       1.000E-06                     *
* Trust Region Control Active                        *
* Automatic Drift Correction for Forces              *
* Max Number of Memory Steps    8                    *
******************************************************
 
:PLANE:  INTERSTITIAL TOTAL      1.24577 DISTAN  1.109E-03 % 
:CHARG:  CLM CHARGE   /ATOM     29.33524 DISTAN  1.764E-04 % 
:DIRM :  MEMORY  0/ 8 RESCALES   1.00
:MIX  :   PRATT  REGULARIZATION: 1.00E-06  GREED: 0.200
     
       CHARGES OF MIXED CHARGE DENSITY
:CTO   : INTERSTITIAL CHARGE =     3.686497
:CTO001: CHARGE SPHERE  1    =    10.596825
:CTO002: CHARGE SPHERE  2    =     5.716678

:NEC03: NUCLEAR AND ELECTRONIC CHARGE     20.00000    20.00000

PW CHANGE     H    K    L             Current                    Change               Residue
:PTO001:      0    0    0  6.56315709E-02 0.00000000E+00 -1.491E-08  0.000E+00 -7.456E-08  0.000E+00
:PTO002:     -1   -1   -1  4.03941691E-02-7.87775491E-02 -6.856E-08 -6.686E-08 -3.428E-07 -3.343E-07
:PTO003:      1   -1   -1  4.03941691E-02 7.87775491E-02 -6.856E-08  6.686E-08 -3.428E-07  3.343E-07
:PTO004:      0    0   -2 -4.37920508E-02 0.00000000E+00  1.306E-07  0.000E+00  6.529E-07  0.000E+00
:PTO005:      0   -2   -2  1.34176032E-01 0.00000000E+00 -7.097E-08  0.000E+00 -3.548E-07  0.000E+00
:PTO006:     -1   -1   -3  4.25301113E-02 3.71644106E-02  2.355E-07 -1.599E-07  1.178E-06 -7.993E-07
:PTO007:      1   -1   -3  4.25301113E-02-3.71644106E-02  2.355E-07  1.599E-07  1.178E-06  7.993E-07
:PTO008:     -2   -2   -2  4.03237522E-03-3.72379188E-03  8.985E-08  6.426E-08  4.492E-07  3.213E-07
:PTO009:      2   -2   -2  4.03237522E-03 3.72379188E-03  8.985E-08 -6.426E-08  4.492E-07 -3.213E-07
:PTO010:      0    0   -4  2.06419291E-02 0.00000000E+00 -3.150E-09  0.000E+00 -1.575E-08  0.000E+00
:PTO011:     -1   -3   -3  2.59423358E-02-5.70491865E-03  1.696E-08  1.322E-07  8.478E-08  6.609E-07
:PTO012:      1   -3   -3  2.59423358E-02 5.70491865E-03  1.696E-08 -1.322E-07  8.478E-08 -6.609E-07

:ENE  : ********** TOTAL ENERGY IN Ry =         -595.36548351



            ---------
:ITE018: 18. ITERATION
            ---------

:NATO :    2 INDEPENDENT AND    2 TOTAL ATOMS IN UNITCELL
       SUBSTANCE: AlN_ZB                                                      

       LATTICE                      = F   
:POT  : POTENTIAL OPTION EX_PBE EC_PBE VX_PBE VC_PBE
:LAT  : LATTICE CONSTANTS=  8.27700  8.27700  8.27700    1.571    1.571    1.571
:VOL  : UNIT CELL VOLUME =     141.76189
       MODE OF CALCULATION IS       = RELA
       NON-SPINPOLARIZED CALCULATION
:IFFT  : FFT-parameters:   64   64   64 Factor: 2.00
       ATOMNUMBER=  1 Al         VCOUL-ZERO = -0.99544E-01
       ATOMNUMBER=  2 N          VCOUL-ZERO =  0.27401E+00
:FIT001: LUSE= 13 SIGMA OF V-XC FIT FOR ATOM  1  0.1132065E-01
:FIT001: LUSE= 13 SIGMA OF V-XC FIT FOR ATOM  1  0.1132065E-01
:FIT002: LUSE= 13 SIGMA OF V-XC FIT FOR ATOM  2  0.2257079E-03
:FIT002: LUSE= 13 SIGMA OF V-XC FIT FOR ATOM  2  0.2257079E-03
:DEN  : DENSITY INTEGRAL  =          -283.47300368   (Ry)
       ELS_POTENTIAL_AT Z=0 and Z=0.5:  -0.94714  -0.94714
       ELS_POTENTIAL_AT Y=0 and Y=0.5:   0.00000   0.00000
:VZERO:v0,v0c,v0x  -1.64122  -0.94714  -0.69408 v5,v5c,v5x  -1.64122  -0.94714  -0.69408
:VZERY:v0,v0c,v0x  -0.79265   0.00000  -0.79265 v5,v5c,v5x  -0.79265   0.00000  -0.79265
:VZERX:v0,v0c,v0x  -0.79265   0.00000  -0.79265 v5,v5c,v5x  -0.79265   0.00000  -0.79265

          ATOMIC SPHERE DEPENDENT PARAMETERS FOR ATOM  Al        
:e__0001: OVERALL ENERGY PARAMETER IS    0.2510
          OVERALL BASIS SET ON ATOM IS LAPW
:E0_0001: E( 0)=    0.2510
             APW+lo
:E0_0001: E( 0)=   -6.9499   E(BOTTOM)=   -7.032   E(TOP)=   -6.868  1  2   165
             LOCAL ORBITAL
:E1_0001: E( 1)=    0.2510
             APW+lo
:E1_0001: E( 1)=   -4.1308   E(BOTTOM)=   -4.257   E(TOP)=   -4.004  0  1   166
             LOCAL ORBITAL

          ATOMIC SPHERE DEPENDENT PARAMETERS FOR ATOM  N         
:e__0002: OVERALL ENERGY PARAMETER IS    0.2510
          OVERALL BASIS SET ON ATOM IS LAPW
:E0_0002: E( 0)=   -1.1600   E(BOTTOM)=   -1.942   E(TOP)= -200.000  1 -1   199
             APW+lo
:E0_0002: E( 0)=    0.6510
             LOCAL ORBITAL
:E1_0002: E( 1)=    0.2510
             APW+lo

       K=   0.00000   0.00000   0.00000            1
:RKM  : MATRIX SIZE   738LOs:  13  RKM= 9.86  WEIGHT= 1.00  PGR:    
       EIGENVALUES ARE:
:EIG00001:      -6.9313027   -4.0991267   -4.0991267   -4.0991267   -0.6472491
:EIG00006:       0.4505676    0.4505676    0.4505676    0.7535891    1.3678179
:EIG00011:       1.3678179    1.3678179    1.7450463    1.7450463    1.8480694
:EIG00016:       1.8480694    1.8480694    1.9982066    2.3548065    2.9946398
:EIG00021:       2.9946398    2.9946398    3.7321543    3.7321543    3.7321543
:EIG00026:       3.8502064    3.8502064    4.1264978    4.1264978    4.1264978
:EIG00031:       4.8230971    5.0495871    5.0495871    5.0495871    5.3290433
:EIG00036:       5.3290433    5.3290433    5.3323310    5.3323310    5.6374877
:EIG00041:       5.6374877    5.6571193    5.8190306    5.8190306    5.8190306
:EIG00046:       5.9014986    5.9014986    5.9014986    5.9603168    5.9603168
 
:EIG00051:       5.9603168    6.1526631    6.1526631    6.1526631    6.3786597
:EIG00056:       6.3786597    6.3786597    6.4758653    6.5723621    6.7400630
:EIG00061:       6.7400630    6.7400630    8.2832058    8.4749723    8.4749723
:EIG00066:       8.4749723    8.5231590    8.5231590    9.1923473    9.2639358
:EIG00071:       9.2639358    9.2639358    9.9069262    9.9069262    9.9763071
:EIG00076:       9.9763071    9.9763071   10.0551769   10.0551769   10.0551769
:EIG00081:      10.1847034   10.1847034   10.1847034   10.4038768   10.4038768
:EIG00086:      10.4140884   10.4140884   10.4140884
       ********************************************************

:KPT   :      NUMBER OF K-POINTS:    1661
   0.0   0.0 angle (M,z), angle (M,x) deg
 RELATIVISTIC LOs:
 on atom            1 e(           1 )=  -4.14549999999978     
 
 RELATIVISTIC LOs:
 on atom            2 e(           1 )=  0.300000000000000     
 
 
        SPIN-ORBIT EIGENVALUES:
     K=   0.00000   0.00000   0.00000            1
      MATRIX SIZE=  188   WEIGHT= 1.00
     EIGENVALUES ARE:
          -6.9313027   -6.9313027   -4.1206343   -4.1206343   -4.0883904
          -4.0883904   -4.0883904   -4.0883904   -0.6472491   -0.6472491
           0.4496389    0.4496389    0.4510317    0.4510317    0.4510317
           0.4510317    0.7535891    0.7535891    1.3653880    1.3653880
           1.3690363    1.3690363    1.3690363    1.3690363    1.7450463
           1.7450463    1.7450463    1.7450463    1.8477838    1.8477838
           1.8482130    1.8482130    1.8482130    1.8482130    1.9982066
           1.9982066    2.3548065    2.3548065    2.9929374    2.9929374

           2.9954929    2.9954929    2.9954929    2.9954929    3.7318732
           3.7318732    3.7322959    3.7322959    3.7322959    3.7322959
           3.8502065    3.8502065    3.8502065    3.8502065    4.1264905
           4.1264905    4.1265014    4.1265014    4.1265014    4.1265014
           4.8230971    4.8230971    5.0489075    5.0489075    5.0499259
           5.0499259    5.0499259    5.0499259    5.3285603    5.3285603
           5.3292834    5.3292834    5.3292834    5.3292834    5.3323338
           5.3323338    5.3323338    5.3323338    5.6374877    5.6374877

           5.6374877    5.6374877    5.6571193    5.6571193    5.8190262
           5.8190262    5.8190262    5.8190262    5.8190393    5.8190393
           5.9014929    5.9014929    5.9015014    5.9015014    5.9015014
           5.9015014    5.9603128    5.9603128    5.9603188    5.9603188
           5.9603188    5.9603188    6.1511660    6.1511660    6.1534130
           6.1534130    6.1534130    6.1534130    6.3785823    6.3785823
           6.3786986    6.3786986    6.3786986    6.3786986    6.4758653
           6.4758653    6.5723621    6.5723621    6.7384576    6.7384576

           6.7408730    6.7408730    6.7408730    6.7408730    8.2832058
           8.2832058    8.4746507    8.4746507    8.4751334    8.4751334
           8.4751334    8.4751334    8.5231590    8.5231590    8.5231590
           8.5231590    9.1923473    9.1923473    9.2637440    9.2637440
           9.2640318    9.2640318    9.2640318    9.2640318    9.9069262
           9.9069262    9.9069262    9.9069262    9.9762141    9.9762141
           9.9763539    9.9763539    9.9763539    9.9763539
       ********************************************************
       Insulator, EF-inconsistency corrected
:GAP  :    0.2434 Ry =     3.310 eV   (provided you have a proper k-mesh)
         Bandranges (emin - emax) and occupancy:
:BAN00006:   6   -4.088977   -4.088390  1.00000000
:BAN00007:   7   -4.088773   -4.088390  1.00000000
:BAN00008:   8   -4.088741   -4.088390  1.00000000
:BAN00009:   9   -0.647249   -0.448166  1.00000000
:BAN00010:  10   -0.647249   -0.447887  1.00000000
:BAN00011:  11    0.022796    0.449639  1.00000000
:BAN00012:  12    0.022796    0.449639  1.00000000
:BAN00013:  13    0.170566    0.451032  1.00000000
:BAN00014:  14    0.170569    0.451032  1.00000000
:BAN00015:  15    0.253402    0.451032  1.00000000
:BAN00016:  16    0.254165    0.451032  1.00000000
:BAN00017:  17    0.694432    1.036865  0.00000000
:BAN00018:  18    0.694432    1.036915  0.00000000
:BAN00019:  19    1.072870    1.365388  0.00000000
:BAN00020:  20    1.073069    1.365388  0.00000000
:BAN00021:  21    1.229562    1.469164  0.00000000
        Energy to separate low and high energystates:   -0.02720


:NOE  : NUMBER OF ELECTRONS          =  16.000

:FER  : F E R M I - ENERGY(TETRAH.M.)=   0.4510317262
:GMA  : POTENTIAL AND CHARGE CUT-OFF  12.00 Ry**.5
 
 
 
 
:POS001: ATOM    1 X,Y,Z = 0.00000 0.00000 0.00000  MULT= 1  ZZ= 13.000  Al
 
       LMMAX  6
       LM=   0 0  4 0  4 4  6 0  6 4 -3 2
 
:CHA001: TOTAL VALENCE CHARGE INSIDE SPHERE   1 =   8.5969    (RMT=  1.7500 )
:PCS001: PARTIAL CHARGES SPHERE =  1 S,P,D,F,      D-EG,D-T2G
:QTL001: 2.2417 6.2503 0.0932 0.0097 0.0000 0.0000 0.0000 0.0185 0.0745 0.0000 0.0000 0.0000
        Q-s-low E-s-low   Q-p-low E-p-low   Q-d-low E-d-low   Q-f-low E-f-low
:EPL001:  2.0460 -6.7725    6.0082 -4.0738    0.0125 -0.4868    0.0019 -0.5153
        Q-s-hi  E-s-hi    Q-p-hi  E-p-hi    Q-d-hi  E-d-hi    Q-f-hi  E-f-hi
:EPH001:  0.1955  0.1674    0.2424  0.2893    0.0808  0.3248    0.0079  0.3131
 
 
 
 
:POS002: ATOM    2 X,Y,Z = 0.25000 0.25000 0.25000  MULT= 1  ZZ=  7.000  N
 
       LMMAX  6
       LM=   0 0  4 0  4 4  6 0  6 4 -3 2
 
:CHA002: TOTAL VALENCE CHARGE INSIDE SPHERE   2 =   3.7166    (RMT=  1.4900 )
:PCS002: PARTIAL CHARGES SPHERE =  2 S,P,D,F,      D-EG,D-T2G
:QTL002: 1.1764 2.5350 0.0045 0.0000 0.0000 0.0000 0.0000 0.0010 0.0035 0.0000 0.0000 0.0000
        Q-s-low E-s-low   Q-p-low E-p-low   Q-d-low E-d-low   Q-f-low E-f-low
:EPL002:  1.1048 -0.5027    0.0041 -0.8967    0.0000 10.0000    0.0000 10.0000
        Q-s-hi  E-s-hi    Q-p-hi  E-p-hi    Q-d-hi  E-d-hi    Q-f-hi  E-f-hi
:EPH002:  0.0717  0.1968    2.5312  0.3009    0.0043  0.2844    0.0000 10.0000
 
:CHA  : TOTAL VALENCE CHARGE INSIDE UNIT CELL =      16.000000
 
:SUM  : SUM OF EIGENVALUES =         -37.818154383
 

        1.ATOM      Al                    1 CORE STATES
:1S 001: 1S                -110.035209374 Ry

        2.ATOM      N                     1 CORE STATES
:1S 002: 1S                 -27.001953297 Ry
:CINT001 Core Integral Atom   1    2.000000
:CINT002 Core Integral Atom   2    1.999995

       DENSITY AT NUCLEUS
        JATOM        VALENCE       SEMI-CORE          CORE           TOTAL
:RTO001:   1       97.491796        0.000000     1392.859654     1490.351450
:RTO002:   2        8.604533        0.000000      200.425842      209.030375
     
       CHARGES OF NEW CHARGE DENSITY
:NTO   : INTERSTITIAL CHARGE =     3.686498
:NTO001: CHARGE SPHERE  1    =    10.596810
:NTO002: CHARGE SPHERE  2    =     5.716686

:NEC01: NUCLEAR AND ELECTRONIC CHARGE     20.00000    19.99999
     
       CHARGES OF OLD CHARGE DENSITY
:OTO   : INTERSTITIAL CHARGE =     3.686497
:OTO001: CHARGE SPHERE  1    =    10.596825
:OTO002: CHARGE SPHERE  2    =     5.716678

:NEC02: NUCLEAR AND ELECTRONIC CHARGE     20.00000    20.00000
     
       CONVERGENCE TEST
:DTO001: DIFFERENCE IN SPHERE  1 =  0.0000236
:DTO002: DIFFERENCE IN SPHERE  2 =  0.0000402

:DIS  :  CHARGE DISTANCE       ( 0.0000402 for atom    2 spin 1)      0.0000319
:BIG check (qbig,qrms,qtot)    0.134D-04   0.233D-04   0.319D-04
 
******************************************************
* MULTISECANT MIXING VER6 RELEASE 6.0 OPTIONS        *
* Standard Mode with controls                        *
* Regularization       1.000E-06                     *
* Trust Region Control Active                        *
* Automatic Drift Correction for Forces              *
* Max Number of Memory Steps    8                    *
******************************************************
 
:PLANE:  INTERSTITIAL TOTAL      1.24577 DISTAN  3.557E-03 % 
:CHARG:  CLM CHARGE   /ATOM     29.33524 DISTAN  1.135E-04 % 
 
 Step History DMIX, Red, Pred, Trust, FRMS, FABS
  2  2.0000E-01  1.0000E+00  1.0000E+00  1.0000E+00
  
:DIRM :  MEMORY  1/ 8 RESCALES   3.35
:MIX  :   PRATT  REGULARIZATION: 1.00E-06  GREED: 0.050  Reduce 0.25  0.05                
     
       CHARGES OF MIXED CHARGE DENSITY
:CTO   : INTERSTITIAL CHARGE =     3.686497
:CTO001: CHARGE SPHERE  1    =    10.596828
:CTO002: CHARGE SPHERE  2    =     5.716674

:NEC03: NUCLEAR AND ELECTRONIC CHARGE     20.00000    20.00000

PW CHANGE     H    K    L             Current                    Change               Residue
:PTO001:      0    0    0  6.56315821E-02 0.00000000E+00  1.118E-08  0.000E+00  4.485E-07  0.000E+00
:PTO002:     -1   -1   -1  4.03942205E-02-7.87774990E-02  5.142E-08  5.014E-08  1.433E-06 -1.068E-07
:PTO003:      1   -1   -1  4.03942205E-02 7.87774990E-02  5.142E-08 -5.014E-08  1.433E-06  1.068E-07
:PTO004:      0    0   -2 -4.37921487E-02 0.00000000E+00 -9.793E-08  0.000E+00  3.135E-06  0.000E+00
:PTO005:      0   -2   -2  1.34176085E-01 0.00000000E+00  5.323E-08  0.000E+00  3.482E-06  0.000E+00
:PTO006:     -1   -1   -3  4.25299346E-02 3.71645305E-02 -1.767E-07  1.199E-07  4.418E-06 -7.302E-07
:PTO007:      1   -1   -3  4.25299346E-02-3.71645305E-02 -1.767E-07 -1.199E-07  4.418E-06  7.302E-07
:PTO008:     -2   -2   -2  4.03230783E-03-3.72384007E-03 -6.739E-08 -4.819E-08  1.494E-06  2.552E-07
:PTO009:      2   -2   -2  4.03230783E-03 3.72384007E-03 -6.739E-08  4.819E-08  1.494E-06 -2.552E-07
:PTO010:      0    0   -4  2.06419314E-02 0.00000000E+00  2.363E-09  0.000E+00  1.387E-06  0.000E+00
:PTO011:     -1   -3   -3  2.59423231E-02-5.70501778E-03 -1.272E-08 -9.913E-08  2.489E-06  4.987E-07
:PTO012:      1   -3   -3  2.59423231E-02 5.70501778E-03 -1.272E-08  9.913E-08  2.489E-06 -4.987E-07

:ENE  : ********** TOTAL ENERGY IN Ry =         -595.36548340



            ---------
:ITE019: 19. ITERATION
            ---------

:NATO :    2 INDEPENDENT AND    2 TOTAL ATOMS IN UNITCELL
       SUBSTANCE: AlN_ZB                                                      

       LATTICE                      = F   
:POT  : POTENTIAL OPTION EX_PBE EC_PBE VX_PBE VC_PBE
:LAT  : LATTICE CONSTANTS=  8.27700  8.27700  8.27700    1.571    1.571    1.571
:VOL  : UNIT CELL VOLUME =     141.76189
       MODE OF CALCULATION IS       = RELA
       NON-SPINPOLARIZED CALCULATION
:IFFT  : FFT-parameters:   64   64   64 Factor: 2.00
       ATOMNUMBER=  1 Al         VCOUL-ZERO = -0.99542E-01
       ATOMNUMBER=  2 N          VCOUL-ZERO =  0.27401E+00
:FIT001: LUSE= 13 SIGMA OF V-XC FIT FOR ATOM  1  0.1132038E-01
:FIT001: LUSE= 13 SIGMA OF V-XC FIT FOR ATOM  1  0.1132038E-01
:FIT002: LUSE= 13 SIGMA OF V-XC FIT FOR ATOM  2  0.2257069E-03
:FIT002: LUSE= 13 SIGMA OF V-XC FIT FOR ATOM  2  0.2257069E-03
:DEN  : DENSITY INTEGRAL  =          -283.47301240   (Ry)
       ELS_POTENTIAL_AT Z=0 and Z=0.5:  -0.94714  -0.94714
       ELS_POTENTIAL_AT Y=0 and Y=0.5:   0.00000   0.00000
:VZERO:v0,v0c,v0x  -1.64122  -0.94714  -0.69408 v5,v5c,v5x  -1.64122  -0.94714  -0.69408
:VZERY:v0,v0c,v0x  -0.79265   0.00000  -0.79265 v5,v5c,v5x  -0.79265   0.00000  -0.79265
:VZERX:v0,v0c,v0x  -0.79265   0.00000  -0.79265 v5,v5c,v5x  -0.79265   0.00000  -0.79265

          ATOMIC SPHERE DEPENDENT PARAMETERS FOR ATOM  Al        
:e__0001: OVERALL ENERGY PARAMETER IS    0.2510
          OVERALL BASIS SET ON ATOM IS LAPW
:E0_0001: E( 0)=    0.2510
             APW+lo
:E0_0001: E( 0)=   -6.9499   E(BOTTOM)=   -7.032   E(TOP)=   -6.868  1  2   165
             LOCAL ORBITAL
:E1_0001: E( 1)=    0.2510
             APW+lo
:E1_0001: E( 1)=   -4.1308   E(BOTTOM)=   -4.257   E(TOP)=   -4.004  0  1   161
             LOCAL ORBITAL

          ATOMIC SPHERE DEPENDENT PARAMETERS FOR ATOM  N         
:e__0002: OVERALL ENERGY PARAMETER IS    0.2510
          OVERALL BASIS SET ON ATOM IS LAPW
:E0_0002: E( 0)=   -1.1600   E(BOTTOM)=   -1.942   E(TOP)= -200.000  1 -1   200
             APW+lo
:E0_0002: E( 0)=    0.6510
             LOCAL ORBITAL
:E1_0002: E( 1)=    0.2510
             APW+lo

       K=   0.00000   0.00000   0.00000            1
:RKM  : MATRIX SIZE   738LOs:  13  RKM= 9.86  WEIGHT= 1.00  PGR:    
       EIGENVALUES ARE:
:EIG00001:      -6.9312993   -4.0991232   -4.0991232   -4.0991232   -0.6472509
:EIG00006:       0.4505651    0.4505651    0.4505651    0.7535877    1.3678180
:EIG00011:       1.3678180    1.3678180    1.7450463    1.7450463    1.8480691
:EIG00016:       1.8480691    1.8480691    1.9982064    2.3548064    2.9946386
:EIG00021:       2.9946386    2.9946386    3.7321541    3.7321541    3.7321541
:EIG00026:       3.8502064    3.8502064    4.1264977    4.1264977    4.1264977
:EIG00031:       4.8230963    5.0495867    5.0495867    5.0495867    5.3290426
:EIG00036:       5.3290426    5.3290426    5.3323315    5.3323315    5.6374868
:EIG00041:       5.6374868    5.6571186    5.8190302    5.8190302    5.8190302
:EIG00046:       5.9014983    5.9014983    5.9014983    5.9603168    5.9603168
 
:EIG00051:       5.9603168    6.1526629    6.1526629    6.1526629    6.3786594
:EIG00056:       6.3786594    6.3786594    6.4758643    6.5723617    6.7400632
:EIG00061:       6.7400632    6.7400632    8.2832057    8.4749712    8.4749712
:EIG00066:       8.4749712    8.5231586    8.5231586    9.1923469    9.2639345
:EIG00071:       9.2639345    9.2639345    9.9069256    9.9069256    9.9763063
:EIG00076:       9.9763063    9.9763063   10.0551766   10.0551766   10.0551766
:EIG00081:      10.1847026   10.1847026   10.1847026   10.4038764   10.4038764
:EIG00086:      10.4140879   10.4140879   10.4140879
       ********************************************************

:KPT   :      NUMBER OF K-POINTS:    1661
   0.0   0.0 angle (M,z), angle (M,x) deg
 RELATIVISTIC LOs:
 on atom            1 e(           1 )=  -4.14549999999978     
 
 RELATIVISTIC LOs:
 on atom            2 e(           1 )=  0.300000000000000     
 
 
        SPIN-ORBIT EIGENVALUES:
     K=   0.00000   0.00000   0.00000            1
      MATRIX SIZE=  188   WEIGHT= 1.00
     EIGENVALUES ARE:
          -6.9312993   -6.9312993   -4.1206308   -4.1206308   -4.0883869
          -4.0883869   -4.0883869   -4.0883869   -0.6472509   -0.6472509
           0.4496364    0.4496364    0.4510292    0.4510292    0.4510292
           0.4510292    0.7535877    0.7535877    1.3653882    1.3653882
           1.3690365    1.3690365    1.3690365    1.3690365    1.7450463
           1.7450463    1.7450463    1.7450463    1.8477835    1.8477835
           1.8482127    1.8482127    1.8482127    1.8482127    1.9982064
           1.9982064    2.3548064    2.3548064    2.9929362    2.9929362

           2.9954917    2.9954917    2.9954917    2.9954917    3.7318730
           3.7318730    3.7322956    3.7322956    3.7322956    3.7322956
           3.8502065    3.8502065    3.8502065    3.8502065    4.1264904
           4.1264904    4.1265013    4.1265013    4.1265013    4.1265013
           4.8230963    4.8230963    5.0489072    5.0489072    5.0499255
           5.0499255    5.0499255    5.0499255    5.3285595    5.3285595
           5.3292826    5.3292826    5.3292826    5.3292826    5.3323343
           5.3323343    5.3323343    5.3323343    5.6374868    5.6374868

           5.6374868    5.6374868    5.6571186    5.6571186    5.8190259
           5.8190259    5.8190259    5.8190259    5.8190389    5.8190389
           5.9014927    5.9014927    5.9015012    5.9015012    5.9015012
           5.9015012    5.9603128    5.9603128    5.9603188    5.9603188
           5.9603188    5.9603188    6.1511658    6.1511658    6.1534127
           6.1534127    6.1534127    6.1534127    6.3785821    6.3785821
           6.3786983    6.3786983    6.3786983    6.3786983    6.4758643
           6.4758643    6.5723617    6.5723617    6.7384578    6.7384578

           6.7408732    6.7408732    6.7408732    6.7408732    8.2832057
           8.2832057    8.4746496    8.4746496    8.4751322    8.4751322
           8.4751322    8.4751322    8.5231586    8.5231586    8.5231586
           8.5231586    9.1923469    9.1923469    9.2637427    9.2637427
           9.2640305    9.2640305    9.2640305    9.2640305    9.9069255
           9.9069255    9.9069255    9.9069255    9.9762133    9.9762133
           9.9763531    9.9763531    9.9763531    9.9763531
       ********************************************************
       Insulator, EF-inconsistency corrected
:GAP  :    0.2434 Ry =     3.310 eV   (provided you have a proper k-mesh)
         Bandranges (emin - emax) and occupancy:
:BAN00006:   6   -4.088973   -4.088387  1.00000000
:BAN00007:   7   -4.088770   -4.088387  1.00000000
:BAN00008:   8   -4.088738   -4.088387  1.00000000
:BAN00009:   9   -0.647251   -0.448169  1.00000000
:BAN00010:  10   -0.647251   -0.447889  1.00000000
:BAN00011:  11    0.022795    0.449636  1.00000000
:BAN00012:  12    0.022795    0.449636  1.00000000
:BAN00013:  13    0.170565    0.451029  1.00000000
:BAN00014:  14    0.170568    0.451029  1.00000000
:BAN00015:  15    0.253401    0.451029  1.00000000
:BAN00016:  16    0.254164    0.451029  1.00000000
:BAN00017:  17    0.694432    1.036864  0.00000000
:BAN00018:  18    0.694432    1.036914  0.00000000
:BAN00019:  19    1.072869    1.365388  0.00000000
:BAN00020:  20    1.073068    1.365388  0.00000000
:BAN00021:  21    1.229562    1.469162  0.00000000
        Energy to separate low and high energystates:   -0.02720


:NOE  : NUMBER OF ELECTRONS          =  16.000

:FER  : F E R M I - ENERGY(TETRAH.M.)=   0.4510292141
:GMA  : POTENTIAL AND CHARGE CUT-OFF  12.00 Ry**.5
 
 
 
 
:POS001: ATOM    1 X,Y,Z = 0.00000 0.00000 0.00000  MULT= 1  ZZ= 13.000  Al
 
       LMMAX  6
       LM=   0 0  4 0  4 4  6 0  6 4 -3 2
 
:CHA001: TOTAL VALENCE CHARGE INSIDE SPHERE   1 =   8.5969    (RMT=  1.7500 )
:PCS001: PARTIAL CHARGES SPHERE =  1 S,P,D,F,      D-EG,D-T2G
:QTL001: 2.2417 6.2503 0.0932 0.0097 0.0000 0.0000 0.0000 0.0185 0.0745 0.0000 0.0000 0.0000
        Q-s-low E-s-low   Q-p-low E-p-low   Q-d-low E-d-low   Q-f-low E-f-low
:EPL001:  2.0460 -6.7725    6.0082 -4.0738    0.0125 -0.4868    0.0019 -0.5153
        Q-s-hi  E-s-hi    Q-p-hi  E-p-hi    Q-d-hi  E-d-hi    Q-f-hi  E-f-hi
:EPH001:  0.1955  0.1674    0.2424  0.2893    0.0808  0.3248    0.0079  0.3131
 
 
 
 
:POS002: ATOM    2 X,Y,Z = 0.25000 0.25000 0.25000  MULT= 1  ZZ=  7.000  N
 
       LMMAX  6
       LM=   0 0  4 0  4 4  6 0  6 4 -3 2
 
:CHA002: TOTAL VALENCE CHARGE INSIDE SPHERE   2 =   3.7166    (RMT=  1.4900 )
:PCS002: PARTIAL CHARGES SPHERE =  2 S,P,D,F,      D-EG,D-T2G
:QTL002: 1.1764 2.5350 0.0045 0.0000 0.0000 0.0000 0.0000 0.0010 0.0035 0.0000 0.0000 0.0000
        Q-s-low E-s-low   Q-p-low E-p-low   Q-d-low E-d-low   Q-f-low E-f-low
:EPL002:  1.1048 -0.5027    0.0041 -0.8967    0.0000 10.0000    0.0000 10.0000
        Q-s-hi  E-s-hi    Q-p-hi  E-p-hi    Q-d-hi  E-d-hi    Q-f-hi  E-f-hi
:EPH002:  0.0717  0.1968    2.5312  0.3009    0.0043  0.2844    0.0000 10.0000
 
:CHA  : TOTAL VALENCE CHARGE INSIDE UNIT CELL =      16.000000
 
:SUM  : SUM OF EIGENVALUES =         -37.818142346
 

        1.ATOM      Al                    1 CORE STATES
:1S 001: 1S                -110.035204518 Ry

        2.ATOM      N                     1 CORE STATES
:1S 002: 1S                 -27.001959812 Ry
:CINT001 Core Integral Atom   1    2.000000
:CINT002 Core Integral Atom   2    1.999995

       DENSITY AT NUCLEUS
        JATOM        VALENCE       SEMI-CORE          CORE           TOTAL
:RTO001:   1       97.491772        0.000000     1392.859653     1490.351426
:RTO002:   2        8.604547        0.000000      200.425841      209.030388
     
       CHARGES OF NEW CHARGE DENSITY
:NTO   : INTERSTITIAL CHARGE =     3.686492
:NTO001: CHARGE SPHERE  1    =    10.596807
:NTO002: CHARGE SPHERE  2    =     5.716695

:NEC01: NUCLEAR AND ELECTRONIC CHARGE     20.00000    19.99999
     
       CHARGES OF OLD CHARGE DENSITY
:OTO   : INTERSTITIAL CHARGE =     3.686497
:OTO001: CHARGE SPHERE  1    =    10.596828
:OTO002: CHARGE SPHERE  2    =     5.716674

:NEC02: NUCLEAR AND ELECTRONIC CHARGE     20.00000    20.00000
     
       CONVERGENCE TEST
:DTO001: DIFFERENCE IN SPHERE  1 =  0.0000308
:DTO002: DIFFERENCE IN SPHERE  2 =  0.0000522

:DIS  :  CHARGE DISTANCE       ( 0.0000522 for atom    2 spin 1)      0.0000415
:BIG check (qbig,qrms,qtot)    0.174D-04   0.303D-04   0.415D-04
 
******************************************************
* MULTISECANT MIXING VER6 RELEASE 6.0 OPTIONS        *
* Standard Mode with controls                        *
* Regularization       1.000E-06                     *
* Trust Region Control Active                        *
* Automatic Drift Correction for Forces              *
* Max Number of Memory Steps    8                    *
******************************************************
 
:PLANE:  INTERSTITIAL TOTAL      1.24577 DISTAN  3.640E-03 % 
:CHARG:  CLM CHARGE   /ATOM     29.33524 DISTAN  1.631E-04 % 
 
 Step History DMIX, Red, Pred, Trust, FRMS, FABS
  2  2.0000E-01  1.0000E+00  1.0000E+00  1.0000E+00
  3  5.0000E-02  1.0000E+00  1.0000E+00  1.0000E+00
  
:NORMS:  Nuclear, Spectral, Froebius, Shanno-Pua   0.4405E+01  0.2238E+01  0.3115E+01  0.1971E+00
:INFO :  Number of Memory Steps    2 Skipping    0
:INFO :  SLambda=    3.0000000  Max    3.0000000

Eigenvalues, unscaled except for SY+YY
   #     SY Real        SY Imag          SS             YY         SY+YY Real      SY+YY Imag
   1  -1.363606E-09   0.000000E+00   2.065015E-14   1.032477E+00   9.955185E-01   0.000000E+00
   2   3.931995E-01   0.000000E+00   2.060676E-01   9.675226E-01   2.184080E+00   0.000000E+00
 
:INFO :  Increased using Multisecant Shanno-Phua
:INFO :  Singular value   2.189E+00 Weight  1.0000E+00 Projections   1.147E-04  1.052E-04
:INFO :  Singular value   9.935E-01 Weight  1.0000E+00 Projections   1.127E-04  1.216E-04
 
:DIRM :  MEMORY 2/8 RESCALE   2.77 RED 1.131 PRED 1.000 NEXT 0.359
:INFO :  Blimit    1.254E+00  1.340E+00  3.285E-01  1.761E+00
:DIRP :  |MSR1|= 1.682E-05 |PRATT|= 1.255E-04 ANGLE=  62.4 DEGREES
:DIRQ :  |MSR1|= 4.275E-05 |PRATT|= 9.566E-05 ANGLE=   4.0 DEGREES
:DIR  :  |MSR1|= 4.594E-05 |PRATT|= 1.578E-04 ANGLE=  45.8 DEGREES
:MIX  :   MSE1   REGULARIZATION: 1.03E-06  GREED: 0.049  Newton 1.00  0.29                
     
       CHARGES OF MIXED CHARGE DENSITY
:CTO   : INTERSTITIAL CHARGE =     3.686498
:CTO001: CHARGE SPHERE  1    =    10.596819
:CTO002: CHARGE SPHERE  2    =     5.716684

:NEC03: NUCLEAR AND ELECTRONIC CHARGE     20.00000    20.00000

PW CHANGE     H    K    L             Current                    Change               Residue
:PTO001:      0    0    0  6.56315500E-02 0.00000000E+00 -3.211E-08  0.000E+00  4.320E-07  0.000E+00
:PTO002:     -1   -1   -1  4.03940711E-02-7.87776201E-02 -1.494E-07 -1.211E-07  1.371E-06 -3.218E-07
:PTO003:      1   -1   -1  4.03940711E-02 7.87776201E-02 -1.494E-07  1.211E-07  1.371E-06  3.218E-07
:PTO004:      0    0   -2 -4.37918348E-02 0.00000000E+00  3.139E-07  0.000E+00  3.032E-06  0.000E+00
:PTO005:      0   -2   -2  1.34175878E-01 0.00000000E+00 -2.072E-07  0.000E+00  3.755E-06  0.000E+00
:PTO006:     -1   -1   -3  4.25304384E-02 3.71641566E-02  5.038E-07 -3.739E-07  4.649E-06 -6.868E-07
:PTO007:      1   -1   -3  4.25304384E-02-3.71641566E-02  5.038E-07  3.739E-07  4.649E-06  6.868E-07
:PTO008:     -2   -2   -2  4.03250850E-03-3.72370087E-03  2.007E-07  1.392E-07  1.527E-06  3.109E-07
:PTO009:      2   -2   -2  4.03250850E-03 3.72370087E-03  2.007E-07 -1.392E-07  1.527E-06 -3.109E-07
:PTO010:      0    0   -4  2.06419169E-02 0.00000000E+00 -1.452E-08  0.000E+00  1.428E-06  0.000E+00
:PTO011:     -1   -3   -3  2.59423563E-02-5.70472421E-03  3.322E-08  2.936E-07  2.516E-06  5.657E-07
:PTO012:      1   -3   -3  2.59423563E-02 5.70472421E-03  3.322E-08 -2.936E-07  2.516E-06 -5.657E-07

:ENE  : ********** TOTAL ENERGY IN Ry =         -595.36548341



            ---------
:ITE020: 20. ITERATION
            ---------

:NATO :    2 INDEPENDENT AND    2 TOTAL ATOMS IN UNITCELL
       SUBSTANCE: AlN_ZB                                                      

       LATTICE                      = F   
:POT  : POTENTIAL OPTION EX_PBE EC_PBE VX_PBE VC_PBE
:LAT  : LATTICE CONSTANTS=  8.27700  8.27700  8.27700    1.571    1.571    1.571
:VOL  : UNIT CELL VOLUME =     141.76189
       MODE OF CALCULATION IS       = RELA
       NON-SPINPOLARIZED CALCULATION
:IFFT  : FFT-parameters:   64   64   64 Factor: 2.00
       ATOMNUMBER=  1 Al         VCOUL-ZERO = -0.99546E-01
       ATOMNUMBER=  2 N          VCOUL-ZERO =  0.27401E+00
:FIT001: LUSE= 13 SIGMA OF V-XC FIT FOR ATOM  1  0.1132115E-01
:FIT001: LUSE= 13 SIGMA OF V-XC FIT FOR ATOM  1  0.1132115E-01
:FIT002: LUSE= 13 SIGMA OF V-XC FIT FOR ATOM  2  0.2257101E-03
:FIT002: LUSE= 13 SIGMA OF V-XC FIT FOR ATOM  2  0.2257101E-03
:DEN  : DENSITY INTEGRAL  =          -283.47298428   (Ry)
       ELS_POTENTIAL_AT Z=0 and Z=0.5:  -0.94714  -0.94714
       ELS_POTENTIAL_AT Y=0 and Y=0.5:   0.00000   0.00000
:VZERO:v0,v0c,v0x  -1.64122  -0.94714  -0.69408 v5,v5c,v5x  -1.64122  -0.94714  -0.69408
:VZERY:v0,v0c,v0x  -0.79265   0.00000  -0.79265 v5,v5c,v5x  -0.79265   0.00000  -0.79265
:VZERX:v0,v0c,v0x  -0.79265   0.00000  -0.79265 v5,v5c,v5x  -0.79265   0.00000  -0.79265

          ATOMIC SPHERE DEPENDENT PARAMETERS FOR ATOM  Al        
:e__0001: OVERALL ENERGY PARAMETER IS    0.2510
          OVERALL BASIS SET ON ATOM IS LAPW
:E0_0001: E( 0)=    0.2510
             APW+lo
:E0_0001: E( 0)=   -6.9499   E(BOTTOM)=   -7.032   E(TOP)=   -6.868  1  2   171
             LOCAL ORBITAL
:E1_0001: E( 1)=    0.2510
             APW+lo
:E1_0001: E( 1)=   -4.1308   E(BOTTOM)=   -4.257   E(TOP)=   -4.004  0  1   170
             LOCAL ORBITAL

          ATOMIC SPHERE DEPENDENT PARAMETERS FOR ATOM  N         
:e__0002: OVERALL ENERGY PARAMETER IS    0.2510
          OVERALL BASIS SET ON ATOM IS LAPW
:E0_0002: E( 0)=   -1.1600   E(BOTTOM)=   -1.942   E(TOP)= -200.000  1 -1   198
             APW+lo
:E0_0002: E( 0)=    0.6510
             LOCAL ORBITAL
:E1_0002: E( 1)=    0.2510
             APW+lo

       K=   0.00000   0.00000   0.00000            1
:RKM  : MATRIX SIZE   738LOs:  13  RKM= 9.86  WEIGHT= 1.00  PGR:    
       EIGENVALUES ARE:
:EIG00001:      -6.9313086   -4.0991328   -4.0991328   -4.0991328   -0.6472461
:EIG00006:       0.4505718    0.4505718    0.4505718    0.7535915    1.3678175
:EIG00011:       1.3678175    1.3678175    1.7450462    1.7450462    1.8480699
:EIG00016:       1.8480699    1.8480699    1.9982070    2.3548067    2.9946416
:EIG00021:       2.9946416    2.9946416    3.7321546    3.7321546    3.7321546
:EIG00026:       3.8502063    3.8502063    4.1264979    4.1264979    4.1264979
:EIG00031:       4.8230983    5.0495875    5.0495875    5.0495875    5.3290443
:EIG00036:       5.3290443    5.3290443    5.3323299    5.3323299    5.6374893
:EIG00041:       5.6374893    5.6571204    5.8190311    5.8190311    5.8190311
:EIG00046:       5.9014990    5.9014990    5.9014990    5.9603168    5.9603168
 
:EIG00051:       5.9603168    6.1526633    6.1526633    6.1526633    6.3786601
:EIG00056:       6.3786601    6.3786601    6.4758669    6.5723629    6.7400624
:EIG00061:       6.7400624    6.7400624    8.2832054    8.4749735    8.4749735
:EIG00066:       8.4749735    8.5231591    8.5231591    9.1923476    9.2639367
:EIG00071:       9.2639367    9.2639367    9.9069263    9.9069263    9.9763078
:EIG00076:       9.9763078    9.9763078   10.0551768   10.0551768   10.0551768
:EIG00081:      10.1847040   10.1847040   10.1847040   10.4038774   10.4038774
:EIG00086:      10.4140891   10.4140891   10.4140891
       ********************************************************

:KPT   :      NUMBER OF K-POINTS:    1661
   0.0   0.0 angle (M,z), angle (M,x) deg
 RELATIVISTIC LOs:
 on atom            1 e(           1 )=  -4.14549999999978     
 
 RELATIVISTIC LOs:
 on atom            2 e(           1 )=  0.300000000000000     
 
 
        SPIN-ORBIT EIGENVALUES:
     K=   0.00000   0.00000   0.00000            1
      MATRIX SIZE=  188   WEIGHT= 1.00
     EIGENVALUES ARE:
          -6.9313086   -6.9313086   -4.1206404   -4.1206404   -4.0883965
          -4.0883965   -4.0883965   -4.0883965   -0.6472461   -0.6472461
           0.4496431    0.4496431    0.4510358    0.4510359    0.4510359
           0.4510359    0.7535915    0.7535915    1.3653877    1.3653877
           1.3690360    1.3690360    1.3690360    1.3690360    1.7450462
           1.7450462    1.7450462    1.7450462    1.8477843    1.8477843
           1.8482135    1.8482135    1.8482135    1.8482135    1.9982070
           1.9982070    2.3548067    2.3548067    2.9929391    2.9929391

           2.9954946    2.9954946    2.9954946    2.9954946    3.7318735
           3.7318735    3.7322961    3.7322961    3.7322961    3.7322961
           3.8502064    3.8502064    3.8502064    3.8502064    4.1264907
           4.1264907    4.1265016    4.1265016    4.1265016    4.1265016
           4.8230983    4.8230983    5.0489080    5.0489080    5.0499264
           5.0499264    5.0499264    5.0499264    5.3285612    5.3285612
           5.3292843    5.3292843    5.3292843    5.3292843    5.3323327
           5.3323327    5.3323327    5.3323327    5.6374893    5.6374893

           5.6374893    5.6374893    5.6571204    5.6571204    5.8190267
           5.8190267    5.8190267    5.8190267    5.8190398    5.8190398
           5.9014933    5.9014933    5.9015018    5.9015018    5.9015018
           5.9015018    5.9603127    5.9603127    5.9603188    5.9603188
           5.9603188    5.9603188    6.1511662    6.1511662    6.1534132
           6.1534132    6.1534132    6.1534132    6.3785828    6.3785828
           6.3786990    6.3786990    6.3786990    6.3786990    6.4758669
           6.4758669    6.5723629    6.5723629    6.7384571    6.7384571

           6.7408725    6.7408725    6.7408725    6.7408725    8.2832054
           8.2832054    8.4746519    8.4746519    8.4751346    8.4751346
           8.4751346    8.4751346    8.5231591    8.5231591    8.5231591
           8.5231591    9.1923476    9.1923476    9.2637450    9.2637450
           9.2640328    9.2640328    9.2640328    9.2640328    9.9069263
           9.9069263    9.9069263    9.9069263    9.9762148    9.9762148
           9.9763546    9.9763546    9.9763546    9.9763546
       ********************************************************
       Insulator, EF-inconsistency corrected
:GAP  :    0.2434 Ry =     3.310 eV   (provided you have a proper k-mesh)
         Bandranges (emin - emax) and occupancy:
:BAN00006:   6   -4.088983   -4.088396  1.00000000
:BAN00007:   7   -4.088779   -4.088396  1.00000000
:BAN00008:   8   -4.088747   -4.088396  1.00000000
:BAN00009:   9   -0.647246   -0.448162  1.00000000
:BAN00010:  10   -0.647246   -0.447883  1.00000000
:BAN00011:  11    0.022798    0.449643  1.00000000
:BAN00012:  12    0.022798    0.449643  1.00000000
:BAN00013:  13    0.170569    0.451036  1.00000000
:BAN00014:  14    0.170571    0.451036  1.00000000
:BAN00015:  15    0.253405    0.451036  1.00000000
:BAN00016:  16    0.254168    0.451036  1.00000000
:BAN00017:  17    0.694432    1.036867  0.00000000
:BAN00018:  18    0.694432    1.036917  0.00000000
:BAN00019:  19    1.072871    1.365388  0.00000000
:BAN00020:  20    1.073071    1.365388  0.00000000
:BAN00021:  21    1.229563    1.469168  0.00000000
        Energy to separate low and high energystates:   -0.02720


:NOE  : NUMBER OF ELECTRONS          =  16.000

:FER  : F E R M I - ENERGY(TETRAH.M.)=   0.4510358520
:GMA  : POTENTIAL AND CHARGE CUT-OFF  12.00 Ry**.5
 
 
 
 
:POS001: ATOM    1 X,Y,Z = 0.00000 0.00000 0.00000  MULT= 1  ZZ= 13.000  Al
 
       LMMAX  6
       LM=   0 0  4 0  4 4  6 0  6 4 -3 2
 
:CHA001: TOTAL VALENCE CHARGE INSIDE SPHERE   1 =   8.5969    (RMT=  1.7500 )
:PCS001: PARTIAL CHARGES SPHERE =  1 S,P,D,F,      D-EG,D-T2G
:QTL001: 2.2417 6.2503 0.0932 0.0097 0.0000 0.0000 0.0000 0.0185 0.0745 0.0000 0.0000 0.0000
        Q-s-low E-s-low   Q-p-low E-p-low   Q-d-low E-d-low   Q-f-low E-f-low
:EPL001:  2.0460 -6.7725    6.0082 -4.0738    0.0125 -0.4868    0.0019 -0.5153
        Q-s-hi  E-s-hi    Q-p-hi  E-p-hi    Q-d-hi  E-d-hi    Q-f-hi  E-f-hi
:EPH001:  0.1955  0.1674    0.2424  0.2893    0.0808  0.3248    0.0079  0.3131
 
 
 
 
:POS002: ATOM    2 X,Y,Z = 0.25000 0.25000 0.25000  MULT= 1  ZZ=  7.000  N
 
       LMMAX  6
       LM=   0 0  4 0  4 4  6 0  6 4 -3 2
 
:CHA002: TOTAL VALENCE CHARGE INSIDE SPHERE   2 =   3.7166    (RMT=  1.4900 )
:PCS002: PARTIAL CHARGES SPHERE =  2 S,P,D,F,      D-EG,D-T2G
:QTL002: 1.1764 2.5350 0.0045 0.0000 0.0000 0.0000 0.0000 0.0010 0.0035 0.0000 0.0000 0.0000
        Q-s-low E-s-low   Q-p-low E-p-low   Q-d-low E-d-low   Q-f-low E-f-low
:EPL002:  1.1048 -0.5026    0.0041 -0.8966    0.0000 10.0000    0.0000 10.0000
        Q-s-hi  E-s-hi    Q-p-hi  E-p-hi    Q-d-hi  E-d-hi    Q-f-hi  E-f-hi
:EPH002:  0.0717  0.1968    2.5312  0.3009    0.0043  0.2844    0.0000 10.0000
 
:CHA  : TOTAL VALENCE CHARGE INSIDE UNIT CELL =      16.000000
 
:SUM  : SUM OF EIGENVALUES =         -37.818177572
 

        1.ATOM      Al                    1 CORE STATES
:1S 001: 1S                -110.035217831 Ry

        2.ATOM      N                     1 CORE STATES
:1S 002: 1S                 -27.001942934 Ry
:CINT001 Core Integral Atom   1    2.000000
:CINT002 Core Integral Atom   2    1.999995

       DENSITY AT NUCLEUS
        JATOM        VALENCE       SEMI-CORE          CORE           TOTAL
:RTO001:   1       97.491835        0.000000     1392.859656     1490.351490
:RTO002:   2        8.604509        0.000000      200.425844      209.030353
     
       CHARGES OF NEW CHARGE DENSITY
:NTO   : INTERSTITIAL CHARGE =     3.686508
:NTO001: CHARGE SPHERE  1    =    10.596814
:NTO002: CHARGE SPHERE  2    =     5.716673

:NEC01: NUCLEAR AND ELECTRONIC CHARGE     20.00000    19.99999
     
       CHARGES OF OLD CHARGE DENSITY
:OTO   : INTERSTITIAL CHARGE =     3.686498
:OTO001: CHARGE SPHERE  1    =    10.596819
:OTO002: CHARGE SPHERE  2    =     5.716684

:NEC02: NUCLEAR AND ELECTRONIC CHARGE     20.00000    20.00000
     
       CONVERGENCE TEST
:DTO001: DIFFERENCE IN SPHERE  1 =  0.0000126
:DTO002: DIFFERENCE IN SPHERE  2 =  0.0000285

:DIS  :  CHARGE DISTANCE       ( 0.0000285 for atom    2 spin 1)      0.0000205
:BIG check (qbig,qrms,qtot)    0.949D-05   0.156D-04   0.205D-04
 
******************************************************
* MULTISECANT MIXING VER6 RELEASE 6.0 OPTIONS        *
* Standard Mode with controls                        *
* Regularization       1.000E-06                     *
* Trust Region Control Active                        *
* Automatic Drift Correction for Forces              *
* Max Number of Memory Steps    8                    *
******************************************************
 
:PLANE:  INTERSTITIAL TOTAL      1.24577 DISTAN  3.484E-03 % 
:CHARG:  CLM CHARGE   /ATOM     29.33523 DISTAN  7.605E-05 % 
 
 Step History DMIX, Red, Pred, Trust, FRMS, FABS
  2  2.0000E-01  1.0000E+00  1.0000E+00  1.0000E+00
  3  5.0000E-02  1.1309E+00  1.0000E+00  1.0000E+00
  4  4.9275E-02  1.0000E+00  3.5876E-01  1.7611E+00
  
:NORMS:  Nuclear, Spectral, Froebius, Shanno-Pua   0.2858E+01  0.2167E+01  0.2284E+01  0.3829E+00
:INFO :  Number of Memory Steps    3 Skipping    0
:INFO :  SLambda=    2.8584022  Max    2.8584022

Eigenvalues, unscaled except for SY+YY
   #     SY Real        SY Imag          SS             YY         SY+YY Real      SY+YY Imag
   1   1.051205E+00   0.000000E+00   5.749180E-01   2.700440E+00   5.698819E+00   0.000000E+00
   2   3.571670E-04   0.000000E+00   7.598530E-15   2.993510E-01   3.062333E-01   0.000000E+00
   3  -3.207421E-10   0.000000E+00   1.724783E-04   2.086523E-04   7.370472E-04   0.000000E+00
 
:INFO :  Increased using Multisecant Shanno-Phua
:INFO :  Singular value   5.700E+00 Weight  1.0000E+00 Projections   1.695E-04  6.322E-07
:INFO :  Singular value   3.062E-01 Weight  1.0000E+00 Projections  -2.338E-03  1.665E-04
:INFO :  Singular value   7.370E-04 Weight  9.9999E-01 Projections   2.214E-03  3.220E-03
 
:DIRM :  MEMORY 3/8 RESCALE   2.11 RED 0.753 PRED 0.359 NEXT 0.063
:INFO :  Blimit    1.641E+00  1.319E+00  4.580E-01  2.416E+00
:DIRP :  |MSR1|= 1.861E-05 |PRATT|= 9.141E-05 ANGLE=  74.3 DEGREES
:DIRQ :  |MSR1|= 3.725E-05 |PRATT|= 4.462E-05 ANGLE=  14.1 DEGREES
:DIR  :  |MSR1|= 4.164E-05 |PRATT|= 1.017E-04 ANGLE=  60.7 DEGREES
:MIX  :   MSE1   REGULARIZATION: 2.70E-06  GREED: 0.069  Newton 1.00  0.41                
     
       CHARGES OF MIXED CHARGE DENSITY
:CTO   : INTERSTITIAL CHARGE =     3.686510
:CTO001: CHARGE SPHERE  1    =    10.596813
:CTO002: CHARGE SPHERE  2    =     5.716677

:NEC03: NUCLEAR AND ELECTRONIC CHARGE     20.00000    20.00000

PW CHANGE     H    K    L             Current                    Change               Residue
:PTO001:      0    0    0  6.56315198E-02 0.00000000E+00 -3.026E-08  0.000E+00  4.859E-07  0.000E+00
:PTO002:     -1   -1   -1  4.03939101E-02-7.87774207E-02 -1.610E-07  1.994E-07  1.577E-06  2.343E-07
:PTO003:      1   -1   -1  4.03939101E-02 7.87774207E-02 -1.610E-07 -1.994E-07  1.577E-06 -2.343E-07
:PTO004:      0    0   -2 -4.37910911E-02 0.00000000E+00  7.436E-07  0.000E+00  3.289E-06  0.000E+00
:PTO005:      0   -2   -2  1.34174940E-01 0.00000000E+00 -9.378E-07  0.000E+00  3.164E-06  0.000E+00
:PTO006:     -1   -1   -3  4.25308618E-02 3.71634007E-02  4.234E-07 -7.559E-07  4.057E-06 -7.440E-07
:PTO007:      1   -1   -3  4.25308618E-02-3.71634007E-02  4.234E-07  7.559E-07  4.057E-06  7.440E-07
:PTO008:     -2   -2   -2  4.03279509E-03-3.72356079E-03  2.866E-07  1.401E-07  1.435E-06  1.507E-07
:PTO009:      2   -2   -2  4.03279509E-03 3.72356079E-03  2.866E-07 -1.401E-07  1.435E-06 -1.507E-07
:PTO010:      0    0   -4  2.06417979E-02 0.00000000E+00 -1.190E-07  0.000E+00  1.350E-06  0.000E+00
:PTO011:     -1   -3   -3  2.59423441E-02-5.70432750E-03 -1.219E-08  3.967E-07  2.485E-06  3.558E-07
:PTO012:      1   -3   -3  2.59423441E-02 5.70432750E-03 -1.219E-08 -3.967E-07  2.485E-06 -3.558E-07

:ENE  : ********** TOTAL ENERGY IN Ry =         -595.36548338



            ---------
:ITE021: 21. ITERATION
            ---------

:NATO :    2 INDEPENDENT AND    2 TOTAL ATOMS IN UNITCELL
       SUBSTANCE: AlN_ZB                                                      

       LATTICE                      = F   
:POT  : POTENTIAL OPTION EX_PBE EC_PBE VX_PBE VC_PBE
:LAT  : LATTICE CONSTANTS=  8.27700  8.27700  8.27700    1.571    1.571    1.571
:VOL  : UNIT CELL VOLUME =     141.76189
       MODE OF CALCULATION IS       = RELA
       NON-SPINPOLARIZED CALCULATION
:IFFT  : FFT-parameters:   64   64   64 Factor: 2.00
       ATOMNUMBER=  1 Al         VCOUL-ZERO = -0.99548E-01
       ATOMNUMBER=  2 N          VCOUL-ZERO =  0.27401E+00
:FIT001: LUSE= 13 SIGMA OF V-XC FIT FOR ATOM  1  0.1132186E-01
:FIT001: LUSE= 13 SIGMA OF V-XC FIT FOR ATOM  1  0.1132186E-01
:FIT002: LUSE= 13 SIGMA OF V-XC FIT FOR ATOM  2  0.2257152E-03
:FIT002: LUSE= 13 SIGMA OF V-XC FIT FOR ATOM  2  0.2257152E-03
:DEN  : DENSITY INTEGRAL  =          -283.47291806   (Ry)
       ELS_POTENTIAL_AT Z=0 and Z=0.5:  -0.94714  -0.94714
       ELS_POTENTIAL_AT Y=0 and Y=0.5:   0.00000   0.00000
:VZERO:v0,v0c,v0x  -1.64123  -0.94714  -0.69409 v5,v5c,v5x  -1.64123  -0.94714  -0.69409
:VZERY:v0,v0c,v0x  -0.79265   0.00000  -0.79265 v5,v5c,v5x  -0.79265   0.00000  -0.79265
:VZERX:v0,v0c,v0x  -0.79265   0.00000  -0.79265 v5,v5c,v5x  -0.79265   0.00000  -0.79265

          ATOMIC SPHERE DEPENDENT PARAMETERS FOR ATOM  Al        
:e__0001: OVERALL ENERGY PARAMETER IS    0.2510
          OVERALL BASIS SET ON ATOM IS LAPW
:E0_0001: E( 0)=    0.2510
             APW+lo
:E0_0001: E( 0)=   -6.9499   E(BOTTOM)=   -7.032   E(TOP)=   -6.868  1  2   168
             LOCAL ORBITAL
:E1_0001: E( 1)=    0.2510
             APW+lo
:E1_0001: E( 1)=   -4.1308   E(BOTTOM)=   -4.257   E(TOP)=   -4.004  0  1   166
             LOCAL ORBITAL

          ATOMIC SPHERE DEPENDENT PARAMETERS FOR ATOM  N         
:e__0002: OVERALL ENERGY PARAMETER IS    0.2510
          OVERALL BASIS SET ON ATOM IS LAPW
:E0_0002: E( 0)=   -1.1600   E(BOTTOM)=   -1.942   E(TOP)= -200.000  1 -1   195
             APW+lo
:E0_0002: E( 0)=    0.6510
             LOCAL ORBITAL
:E1_0002: E( 1)=    0.2510
             APW+lo

       K=   0.00000   0.00000   0.00000            1
:RKM  : MATRIX SIZE   738LOs:  13  RKM= 9.86  WEIGHT= 1.00  PGR:    
       EIGENVALUES ARE:
:EIG00001:      -6.9313126   -4.0991367   -4.0991367   -4.0991367   -0.6472472
:EIG00006:       0.4505701    0.4505701    0.4505701    0.7535915    1.3678173
:EIG00011:       1.3678173    1.3678173    1.7450457    1.7450457    1.8480704
:EIG00016:       1.8480704    1.8480704    1.9982082    2.3548078    2.9946399
:EIG00021:       2.9946399    2.9946399    3.7321542    3.7321542    3.7321542
:EIG00026:       3.8502053    3.8502053    4.1264976    4.1264976    4.1264976
:EIG00031:       4.8230982    5.0495878    5.0495878    5.0495878    5.3290432
:EIG00036:       5.3290432    5.3290432    5.3323288    5.3323288    5.6374888
:EIG00041:       5.6374888    5.6571211    5.8190316    5.8190316    5.8190316
:EIG00046:       5.9014990    5.9014990    5.9014990    5.9603164    5.9603164
 
:EIG00051:       5.9603164    6.1526627    6.1526627    6.1526627    6.3786607
:EIG00056:       6.3786607    6.3786607    6.4758682    6.5723638    6.7400624
:EIG00061:       6.7400624    6.7400624    8.2832051    8.4749724    8.4749724
:EIG00066:       8.4749724    8.5231587    8.5231587    9.1923474    9.2639349
:EIG00071:       9.2639349    9.2639349    9.9069244    9.9069244    9.9763062
:EIG00076:       9.9763062    9.9763062   10.0551753   10.0551753   10.0551753
:EIG00081:      10.1847031   10.1847031   10.1847031   10.4038771   10.4038771
:EIG00086:      10.4140887   10.4140887   10.4140887
       ********************************************************

:KPT   :      NUMBER OF K-POINTS:    1661
   0.0   0.0 angle (M,z), angle (M,x) deg
 RELATIVISTIC LOs:
 on atom            1 e(           1 )=  -4.14549999999978     
 
 RELATIVISTIC LOs:
 on atom            2 e(           1 )=  0.300000000000000     
 
 
        SPIN-ORBIT EIGENVALUES:
     K=   0.00000   0.00000   0.00000            1
      MATRIX SIZE=  188   WEIGHT= 1.00
     EIGENVALUES ARE:
          -6.9313126   -6.9313126   -4.1206443   -4.1206443   -4.0884004
          -4.0884004   -4.0884004   -4.0884004   -0.6472472   -0.6472472
           0.4496414    0.4496414    0.4510342    0.4510342    0.4510342
           0.4510342    0.7535915    0.7535915    1.3653875    1.3653875
           1.3690358    1.3690358    1.3690358    1.3690358    1.7450457
           1.7450457    1.7450457    1.7450457    1.8477847    1.8477847
           1.8482140    1.8482140    1.8482140    1.8482140    1.9982082
           1.9982082    2.3548078    2.3548078    2.9929375    2.9929375

           2.9954930    2.9954930    2.9954930    2.9954930    3.7318731
           3.7318731    3.7322957    3.7322957    3.7322957    3.7322957
           3.8502054    3.8502054    3.8502054    3.8502054    4.1264904
           4.1264904    4.1265013    4.1265013    4.1265013    4.1265013
           4.8230982    4.8230982    5.0489082    5.0489082    5.0499266
           5.0499266    5.0499266    5.0499266    5.3285602    5.3285602
           5.3292832    5.3292832    5.3292832    5.3292832    5.3323316
           5.3323316    5.3323316    5.3323316    5.6374888    5.6374888

           5.6374888    5.6374888    5.6571211    5.6571211    5.8190273
           5.8190273    5.8190273    5.8190273    5.8190403    5.8190403
           5.9014933    5.9014933    5.9015019    5.9015019    5.9015019
           5.9015019    5.9603124    5.9603124    5.9603184    5.9603184
           5.9603184    5.9603184    6.1511656    6.1511656    6.1534126
           6.1534126    6.1534126    6.1534126    6.3785834    6.3785834
           6.3786996    6.3786996    6.3786996    6.3786996    6.4758682
           6.4758682    6.5723638    6.5723638    6.7384571    6.7384571

           6.7408725    6.7408725    6.7408725    6.7408725    8.2832051
           8.2832051    8.4746508    8.4746508    8.4751335    8.4751335
           8.4751335    8.4751335    8.5231587    8.5231587    8.5231587
           8.5231587    9.1923474    9.1923474    9.2637432    9.2637432
           9.2640309    9.2640309    9.2640309    9.2640309    9.9069244
           9.9069244    9.9069244    9.9069244    9.9762132    9.9762132
           9.9763530    9.9763530    9.9763530    9.9763530
       ********************************************************
       Insulator, EF-inconsistency corrected
:GAP  :    0.2434 Ry =     3.310 eV   (provided you have a proper k-mesh)
         Bandranges (emin - emax) and occupancy:
:BAN00006:   6   -4.088987   -4.088400  1.00000000
:BAN00007:   7   -4.088783   -4.088400  1.00000000
:BAN00008:   8   -4.088751   -4.088400  1.00000000
:BAN00009:   9   -0.647247   -0.448164  1.00000000
:BAN00010:  10   -0.647247   -0.447884  1.00000000
:BAN00011:  11    0.022797    0.449641  1.00000000
:BAN00012:  12    0.022797    0.449641  1.00000000
:BAN00013:  13    0.170568    0.451034  1.00000000
:BAN00014:  14    0.170571    0.451034  1.00000000
:BAN00015:  15    0.253404    0.451034  1.00000000
:BAN00016:  16    0.254167    0.451034  1.00000000
:BAN00017:  17    0.694433    1.036867  0.00000000
:BAN00018:  18    0.694433    1.036917  0.00000000
:BAN00019:  19    1.072872    1.365387  0.00000000
:BAN00020:  20    1.073071    1.365387  0.00000000
:BAN00021:  21    1.229562    1.469167  0.00000000
        Energy to separate low and high energystates:   -0.02720


:NOE  : NUMBER OF ELECTRONS          =  16.000

:FER  : F E R M I - ENERGY(TETRAH.M.)=   0.4510342173
:GMA  : POTENTIAL AND CHARGE CUT-OFF  12.00 Ry**.5
 
 
 
 
:POS001: ATOM    1 X,Y,Z = 0.00000 0.00000 0.00000  MULT= 1  ZZ= 13.000  Al
 
       LMMAX  6
       LM=   0 0  4 0  4 4  6 0  6 4 -3 2
 
:CHA001: TOTAL VALENCE CHARGE INSIDE SPHERE   1 =   8.5969    (RMT=  1.7500 )
:PCS001: PARTIAL CHARGES SPHERE =  1 S,P,D,F,      D-EG,D-T2G
:QTL001: 2.2417 6.2503 0.0932 0.0097 0.0000 0.0000 0.0000 0.0185 0.0745 0.0000 0.0000 0.0000
        Q-s-low E-s-low   Q-p-low E-p-low   Q-d-low E-d-low   Q-f-low E-f-low
:EPL001:  2.0460 -6.7725    6.0082 -4.0738    0.0125 -0.4868    0.0019 -0.5153
        Q-s-hi  E-s-hi    Q-p-hi  E-p-hi    Q-d-hi  E-d-hi    Q-f-hi  E-f-hi
:EPH001:  0.1955  0.1674    0.2424  0.2893    0.0808  0.3248    0.0079  0.3131
 
 
 
 
:POS002: ATOM    2 X,Y,Z = 0.25000 0.25000 0.25000  MULT= 1  ZZ=  7.000  N
 
       LMMAX  6
       LM=   0 0  4 0  4 4  6 0  6 4 -3 2
 
:CHA002: TOTAL VALENCE CHARGE INSIDE SPHERE   2 =   3.7166    (RMT=  1.4900 )
:PCS002: PARTIAL CHARGES SPHERE =  2 S,P,D,F,      D-EG,D-T2G
:QTL002: 1.1764 2.5350 0.0045 0.0000 0.0000 0.0000 0.0000 0.0010 0.0035 0.0000 0.0000 0.0000
        Q-s-low E-s-low   Q-p-low E-p-low   Q-d-low E-d-low   Q-f-low E-f-low
:EPL002:  1.1048 -0.5027    0.0041 -0.8966    0.0000 10.0000    0.0000 10.0000
        Q-s-hi  E-s-hi    Q-p-hi  E-p-hi    Q-d-hi  E-d-hi    Q-f-hi  E-f-hi
:EPH002:  0.0717  0.1968    2.5312  0.3009    0.0043  0.2844    0.0000 10.0000
 
:CHA  : TOTAL VALENCE CHARGE INSIDE UNIT CELL =      16.000000
 
:SUM  : SUM OF EIGENVALUES =         -37.818218359
 

        1.ATOM      Al                    1 CORE STATES
:1S 001: 1S                -110.035221408 Ry

        2.ATOM      N                     1 CORE STATES
:1S 002: 1S                 -27.001952042 Ry
:CINT001 Core Integral Atom   1    2.000000
:CINT002 Core Integral Atom   2    1.999995

       DENSITY AT NUCLEUS
        JATOM        VALENCE       SEMI-CORE          CORE           TOTAL
:RTO001:   1       97.491837        0.000000     1392.859647     1490.351484
:RTO002:   2        8.604518        0.000000      200.425865      209.030383
     
       CHARGES OF NEW CHARGE DENSITY
:NTO   : INTERSTITIAL CHARGE =     3.686503
:NTO001: CHARGE SPHERE  1    =    10.596813
:NTO002: CHARGE SPHERE  2    =     5.716678

:NEC01: NUCLEAR AND ELECTRONIC CHARGE     20.00000    19.99999
     
       CHARGES OF OLD CHARGE DENSITY
:OTO   : INTERSTITIAL CHARGE =     3.686510
:OTO001: CHARGE SPHERE  1    =    10.596813
:OTO002: CHARGE SPHERE  2    =     5.716677

:NEC02: NUCLEAR AND ELECTRONIC CHARGE     20.00000    20.00000
     
       CONVERGENCE TEST
:DTO001: DIFFERENCE IN SPHERE  1 =  0.0000019
:DTO002: DIFFERENCE IN SPHERE  2 =  0.0000035

:DIS  :  CHARGE DISTANCE       ( 0.0000035 for atom    2 spin 1)      0.0000027
:BIG check (qbig,qrms,qtot)    0.117D-05   0.200D-05   0.271D-05
 
******************************************************
* MULTISECANT MIXING VER6 RELEASE 6.0 OPTIONS        *
* Standard Mode with controls                        *
* Regularization       1.000E-06                     *
* Trust Region Control Active                        *
* Automatic Drift Correction for Forces              *
* Max Number of Memory Steps    8                    *
******************************************************
 
:PLANE:  INTERSTITIAL TOTAL      1.24576 DISTAN  3.451E-03 % 
:CHARG:  CLM CHARGE   /ATOM     29.33523 DISTAN  1.275E-05 % 
 
 Step History DMIX, Red, Pred, Trust, FRMS, FABS
  2  2.0000E-01  1.0000E+00  1.0000E+00  1.0000E+00
  3  5.0000E-02  1.1309E+00  1.0000E+00  1.0000E+00
  4  4.9275E-02  7.5251E-01  3.5876E-01  1.7611E+00
  5  6.8703E-02  1.0000E+00  6.2822E-02  2.4163E+00
  
:NORMS:  Nuclear, Spectral, Froebius, Shanno-Pua   0.1625E+01  0.1129E+01  0.1284E+01  0.7413E+00
:INFO :  Number of Memory Steps    4 Skipping    0
:INFO :  SLambda=    1.6246746  Max    1.6246746

Eigenvalues, unscaled except for SY+YY
   #     SY Real        SY Imag          SS             YY         SY+YY Real      SY+YY Imag
   1   2.336391E+00   0.000000E+00   2.283521E+00   2.909352E+00   6.633252E+00   0.000000E+00
   2   3.904753E-01   0.000000E+00   1.442154E-01   9.283997E-01   1.632490E+00   0.000000E+00
   3   8.369186E-07   0.000000E+00   8.569303E-15   1.622477E-01   1.645288E-01   0.000000E+00
   4  -1.856159E-11   0.000000E+00   2.158291E-08   9.099798E-08   1.465687E-07   0.000000E+00
 
:INFO :  Increased using Multisecant Shanno-Phua
:INFO :  Singular value   6.643E+00 Weight  1.0000E+00 Projections   1.239E-04 -6.984E-07
:INFO :  Singular value   1.630E+00 Weight  1.0000E+00 Projections  -2.020E-05  3.475E-06
:INFO :  Singular value   1.645E-01 Weight  1.0000E+00 Projections  -9.378E-05  1.512E-04
:INFO :  Singular value   1.466E-07 Weight  2.5316E-03 Projections   1.233E-05 -4.280E-05
 
:DIRM :  MEMORY 4/8 RESCALE   1.43 RED 0.810 PRED 0.063 NEXT 0.086
:INFO :  Blimit    2.430E+00  1.439E+00  6.960E-01  4.007E+00
:DIRP :  |MSR1|= 8.239E-08 |PRATT|= 6.137E-05 ANGLE=  75.4 DEGREES
:DIRQ :  |MSR1|= 0.000E+00 |PRATT|= 0.000E+00 ANGLE=   0.0 DEGREES
:DIR  :  |MSR1|= 5.607E-07 |PRATT|= 6.182E-05 ANGLE=  85.7 DEGREES
:MIX  :   MSE1   REGULARIZATION: 2.91E-06  GREED: 0.104  Newton 1.00  0.01                
     
       CHARGES OF MIXED CHARGE DENSITY
:CTO   : INTERSTITIAL CHARGE =     3.686510
:CTO001: CHARGE SPHERE  1    =    10.596813
:CTO002: CHARGE SPHERE  2    =     5.716678

:NEC03: NUCLEAR AND ELECTRONIC CHARGE     20.00000    20.00000

PW CHANGE     H    K    L             Current                    Change               Residue
:PTO001:      0    0    0  6.56315194E-02 0.00000000E+00 -3.830E-10  0.000E+00  5.200E-07  0.000E+00
:PTO002:     -1   -1   -1  4.03939138E-02-7.87774217E-02  3.708E-09 -1.007E-09  1.804E-06 -6.784E-08
:PTO003:      1   -1   -1  4.03939138E-02 7.87774217E-02  3.708E-09  1.007E-09  1.804E-06  6.784E-08
:PTO004:      0    0   -2 -4.37910871E-02 0.00000000E+00  4.052E-09  0.000E+00  2.517E-06  0.000E+00
:PTO005:      0   -2   -2  1.34174939E-01 0.00000000E+00 -8.438E-10  0.000E+00  4.366E-06  0.000E+00
:PTO006:     -1   -1   -3  4.25308612E-02 3.71633994E-02 -6.114E-10 -1.296E-09  3.726E-06  9.743E-08
:PTO007:      1   -1   -3  4.25308612E-02-3.71633994E-02 -6.114E-10  1.296E-09  3.726E-06 -9.743E-08
:PTO008:     -2   -2   -2  4.03279622E-03-3.72356267E-03  1.125E-09 -1.883E-09  1.161E-06 -4.780E-09
:PTO009:      2   -2   -2  4.03279622E-03 3.72356267E-03  1.125E-09  1.883E-09  1.161E-06  4.780E-09
:PTO010:      0    0   -4  2.06417985E-02 0.00000000E+00  6.005E-10  0.000E+00  1.530E-06  0.000E+00
:PTO011:     -1   -3   -3  2.59423468E-02-5.70432747E-03  2.720E-09  3.560E-11  2.582E-06 -6.293E-08
:PTO012:      1   -3   -3  2.59423468E-02 5.70432747E-03  2.720E-09 -3.560E-11  2.582E-06  6.293E-08

:ENE  : ********** TOTAL ENERGY IN Ry =         -595.36548332

