------------------------------------------------------------
          Invoking FHI-aims ...

          When using FHI-aims, please cite the following reference:

            Volker Blum, Ralf Gehrke, Felix Hanke, Paula Havu,
            Ville Havu, Xinguo Ren, Karsten Reuter, and Matthias Scheffler,
            'Ab Initio Molecular Simulations with Numeric Atom-Centered Orbitals',
            Computer Physics Communications 180, 2175-2196 (2009)

          In addition, many other developments in FHI-aims are likely important for
          your particular application. A partial list of references is given at the end of
          this file. Thank you for giving credit to the authors of these developments.

          For any questions about FHI-aims, please visit our slack channel at

            https://fhi-aims.slack.com

          and our main development and support site at

            https://aims-git.rz-berlin.mpg.de .

          The latter site, in particular, has a wiki to collect information, as well
          as an issue tracker to log discussions, suggest improvements, and report issues
          or bugs. https://aims-git.rz-berlin.mpg.de is also the main development site
          of the project and all new and updated code versions can be obtained there.
          Please send an email to aims-coordinators@fhi-berlin.mpg.de and we will add
          you to these sites. They are for you and everyone is welcome there.

------------------------------------------------------------



  Date     :  20220608, Time     :  065037.162
  Time zero on CPU 1             :   0.346043000000000E+00  s.
  Internal wall clock time zero  :           423903037.162  s.

  FHI-aims created a unique identifier for this run for later identification
  aims_uuid : BAF5FD96-10D8-458D-AF0C-69ABADAEDCE5

  Build configuration of the current instance of FHI-aims
  -------------------------------------------------------
  FHI-aims version      : 220409
  Commit number         : 207b36741
  CMake host system     : Linux-5.3.18-24.96-default
  CMake version         : 3.17.0
  Fortran compiler      : /opt/cray/pe/craype/2.7.10/bin/ftn (Intel) version 19.1.2.20200623
  Fortran compiler flags: -O3 -static -ip -xmic-avx512 -fp-model precise
  C compiler            : /opt/cray/pe/craype/2.7.10/bin/cc (Intel) version 19.1.2.20200623
  C compiler flags      : -O3 -static -ip -xmic-avx512 -fp-model precise -std=gnu99
  ELPA2 kernel          : AVX512
  Using MPI
  Using ScaLAPACK
  Using LibXC
  Using i-PI
  Using RLSY
  Linking against:

  Using      170 parallel tasks.
  Task        0 on host nid12000 reporting.
  Task        1 on host nid12000 reporting.
  Task        2 on host nid12000 reporting.
  Task        3 on host nid12000 reporting.
  Task        4 on host nid12000 reporting.
  Task        5 on host nid12000 reporting.
  Task        6 on host nid12000 reporting.
  Task        7 on host nid12000 reporting.
  Task        8 on host nid12000 reporting.
  Task        9 on host nid12000 reporting.
  Task       10 on host nid12000 reporting.
  Task       11 on host nid12000 reporting.
  Task       12 on host nid12000 reporting.
  Task       13 on host nid12000 reporting.
  Task       14 on host nid12000 reporting.
  Task       15 on host nid12000 reporting.
  Task       16 on host nid12000 reporting.
  Task       17 on host nid12001 reporting.
  Task       18 on host nid12001 reporting.
  Task       19 on host nid12001 reporting.
  Task       20 on host nid12001 reporting.
  Task       21 on host nid12001 reporting.
  Task       22 on host nid12001 reporting.
  Task       23 on host nid12001 reporting.
  Task       24 on host nid12001 reporting.
  Task       25 on host nid12001 reporting.
  Task       26 on host nid12001 reporting.
  Task       27 on host nid12001 reporting.
  Task       28 on host nid12001 reporting.
  Task       29 on host nid12001 reporting.
  Task       30 on host nid12001 reporting.
  Task       31 on host nid12001 reporting.
  Task       32 on host nid12001 reporting.
  Task       33 on host nid12001 reporting.
  Task       34 on host nid12002 reporting.
  Task       35 on host nid12002 reporting.
  Task       36 on host nid12002 reporting.
  Task       37 on host nid12002 reporting.
  Task       38 on host nid12002 reporting.
  Task       39 on host nid12002 reporting.
  Task       40 on host nid12002 reporting.
  Task       41 on host nid12002 reporting.
  Task       42 on host nid12002 reporting.
  Task       43 on host nid12002 reporting.
  Task       44 on host nid12002 reporting.
  Task       45 on host nid12002 reporting.
  Task       46 on host nid12002 reporting.
  Task       47 on host nid12002 reporting.
  Task       48 on host nid12002 reporting.
  Task       49 on host nid12002 reporting.
  Task       50 on host nid12002 reporting.
  Task       51 on host nid12003 reporting.
  Task       52 on host nid12003 reporting.
  Task       53 on host nid12003 reporting.
  Task       54 on host nid12003 reporting.
  Task       55 on host nid12003 reporting.
  Task       56 on host nid12003 reporting.
  Task       57 on host nid12003 reporting.
  Task       58 on host nid12003 reporting.
  Task       59 on host nid12003 reporting.
  Task       60 on host nid12003 reporting.
  Task       61 on host nid12003 reporting.
  Task       62 on host nid12003 reporting.
  Task       63 on host nid12003 reporting.
  Task       64 on host nid12003 reporting.
  Task       65 on host nid12003 reporting.
  Task       66 on host nid12003 reporting.
  Task       67 on host nid12003 reporting.
  Task       68 on host nid12004 reporting.
  Task       69 on host nid12004 reporting.
  Task       70 on host nid12004 reporting.
  Task       71 on host nid12004 reporting.
  Task       72 on host nid12004 reporting.
  Task       73 on host nid12004 reporting.
  Task       74 on host nid12004 reporting.
  Task       75 on host nid12004 reporting.
  Task       76 on host nid12004 reporting.
  Task       77 on host nid12004 reporting.
  Task       78 on host nid12004 reporting.
  Task       79 on host nid12004 reporting.
  Task       80 on host nid12004 reporting.
  Task       81 on host nid12004 reporting.
  Task       82 on host nid12004 reporting.
  Task       83 on host nid12004 reporting.
  Task       84 on host nid12004 reporting.
  Task       85 on host nid12005 reporting.
  Task       86 on host nid12005 reporting.
  Task       87 on host nid12005 reporting.
  Task       88 on host nid12005 reporting.
  Task       89 on host nid12005 reporting.
  Task       90 on host nid12005 reporting.
  Task       91 on host nid12005 reporting.
  Task       92 on host nid12005 reporting.
  Task       93 on host nid12005 reporting.
  Task       94 on host nid12005 reporting.
  Task       95 on host nid12005 reporting.
  Task       96 on host nid12005 reporting.
  Task       97 on host nid12005 reporting.
  Task       98 on host nid12005 reporting.
  Task       99 on host nid12005 reporting.
  Task      100 on host nid12005 reporting.
  Task      101 on host nid12005 reporting.
  Task      102 on host nid12006 reporting.
  Task      103 on host nid12006 reporting.
  Task      104 on host nid12006 reporting.
  Task      105 on host nid12006 reporting.
  Task      106 on host nid12006 reporting.
  Task      107 on host nid12006 reporting.
  Task      108 on host nid12006 reporting.
  Task      109 on host nid12006 reporting.
  Task      110 on host nid12006 reporting.
  Task      111 on host nid12006 reporting.
  Task      112 on host nid12006 reporting.
  Task      113 on host nid12006 reporting.
  Task      114 on host nid12006 reporting.
  Task      115 on host nid12006 reporting.
  Task      116 on host nid12006 reporting.
  Task      117 on host nid12006 reporting.
  Task      118 on host nid12006 reporting.
  Task      119 on host nid12007 reporting.
  Task      120 on host nid12007 reporting.
  Task      121 on host nid12007 reporting.
  Task      122 on host nid12007 reporting.
  Task      123 on host nid12007 reporting.
  Task      124 on host nid12007 reporting.
  Task      125 on host nid12007 reporting.
  Task      126 on host nid12007 reporting.
  Task      127 on host nid12007 reporting.
  Task      128 on host nid12007 reporting.
  Task      129 on host nid12007 reporting.
  Task      130 on host nid12007 reporting.
  Task      131 on host nid12007 reporting.
  Task      132 on host nid12007 reporting.
  Task      133 on host nid12007 reporting.
  Task      134 on host nid12007 reporting.
  Task      135 on host nid12007 reporting.
  Task      136 on host nid12008 reporting.
  Task      137 on host nid12008 reporting.
  Task      138 on host nid12008 reporting.
  Task      139 on host nid12008 reporting.
  Task      140 on host nid12008 reporting.
  Task      141 on host nid12008 reporting.
  Task      142 on host nid12008 reporting.
  Task      143 on host nid12008 reporting.
  Task      144 on host nid12008 reporting.
  Task      145 on host nid12008 reporting.
  Task      146 on host nid12008 reporting.
  Task      147 on host nid12008 reporting.
  Task      148 on host nid12008 reporting.
  Task      149 on host nid12008 reporting.
  Task      150 on host nid12008 reporting.
  Task      151 on host nid12008 reporting.
  Task      152 on host nid12008 reporting.
  Task      153 on host nid12009 reporting.
  Task      154 on host nid12009 reporting.
  Task      155 on host nid12009 reporting.
  Task      156 on host nid12009 reporting.
  Task      157 on host nid12009 reporting.
  Task      158 on host nid12009 reporting.
  Task      159 on host nid12009 reporting.
  Task      160 on host nid12009 reporting.
  Task      161 on host nid12009 reporting.
  Task      162 on host nid12009 reporting.
  Task      163 on host nid12009 reporting.
  Task      164 on host nid12009 reporting.
  Task      165 on host nid12009 reporting.
  Task      166 on host nid12009 reporting.
  Task      167 on host nid12009 reporting.
  Task      168 on host nid12009 reporting.
  Task      169 on host nid12009 reporting.

  Performing system and environment tests:
  | Environment variable OMP_NUM_THREADS correctly set to 1.
  | Checking for ScaLAPACK...
  | Testing pdtran()...
  | All pdtran() tests passed.

  Obtaining array dimensions for all initial allocations:
  
  -----------------------------------------------------------------------
  Parsing control.in (first pass over file, find array dimensions only).
  The contents of control.in will be repeated verbatim below
  unless switched off by setting 'verbatim_writeout .false.' .
  in the first line of control.in .
  -----------------------------------------------------------------------
  
  #xc functinal
  xc       hse06  0.11
  hse_unit bohr-1
  #Dispersion
  vdw_correction_hirshfeld
  
  #Spin and relativistic
  spin   none
  relativistic atomic_zora scalar
  
  #k-grid settings
  k_grid  10 10 10
  
  include_spin_orbit
  empty_states 100
  
  
  exx_band_structure_version 1
  calculate_fock_matrix_version 5
  
  output band  0.0000   0.0000    0.0000   0.0000   0.0000    0.5000  21 G  X
  output band  0.0000   0.0000    0.5000  -0.3355   0.3355    0.5000  21 X  Y
  output band -0.3355   0.3355    0.5000  -0.4177   0.4177    0.4177  21 Y  S
  output band -0.4177   0.4177    0.4177   0.0000   0.0000    0.0000  21 S  G
  output band  0.0000   0.0000    0.0000   0.5000   0.5000   -0.5000  21 G  Z
  output band  0.5000   0.5000   -0.5000   0.4177   0.5823   -0.4177  21 Z  S1
  output band  0.4177   0.5823   -0.4177   0.0000   0.5000    0.0000  21 S1 N
  output band  0.0000   0.5000    0.0000   0.2500   0.2500    0.2500  21 N  P
  output band  0.2500   0.2500    0.2500   0.5000   0.5000   -0.3355  21 P  Y1
  output band  0.5000   0.5000   -0.3355   0.5000   0.5000   -0.5000  21 Y1 Z
  output band  0.0000   0.0000    0.5000   0.2500   0.2500    0.2500  21 X  P
  
  output dos_tetrahedron -20  10  6001
  output species_proj_dos_tetrahedron -20 10  6001
  
  # Dielectric properties
  #
  #compute_dielectric 15 1500
  #
  #output dielectric  gaussian   0.1   x  x
  #output dielectric  gaussian   0.1   y  y
  #output dielectric  gaussian   0.1   z  z
  
  
  ################################################################################
  #
  #  FHI-aims code project
  #  Volker Blum, 2018
  #
  #  Suggested "intermediate" defaults for Ag atom (to be pasted into control.in file)
  #
  ################################################################################
    species        Ag
  #     global species definitions
      nucleus             47
      mass                107.8682
  #
      l_hartree           6
  #
      cut_pot             4.0  2.0  1.0
      basis_dep_cutoff    1e-4
  #
      radial_base         62 7.0
      radial_multiplier   2
      angular_grids specified
        division   0.3947   50
        division   0.7739  110
        division   1.1156  194
        division   1.3117  302
        division   1.5936  434
  #      division   2.0830  590
  #      division   2.2341  770
  #      division   2.8497 1202
  #      outer_grid  974
        outer_grid  434
  ################################################################################
  #
  #  Definition of "minimal" basis
  #
  ################################################################################
  #     valence basis states
      valence      5  s   1.
      valence      4  p   6.
      valence      4  d  10.
  #     ion occupancy
      ion_occ     5  s   0.
      ion_occ     4  p   6.
      ion_occ     4  d   9.
  ################################################################################
  #
  #  Suggested additional basis functions. For production calculations,
  #  uncomment them one after another (the most important basis functions are
  #  listed first).
  #
  #  Constructed for dimers: 2.1 A, 2.45 A, 3.00 A, 4.00 A
  #
  ################################################################################
  #  "First tier" - max. impr. -144.99  meV, min. impr. -3.42 meV
       ionic 5 p auto
       hydro 4 f 7.6
       hydro 3 s 2.6
    for_aux   hydro 5 g 9.8
       hydro 4 d 8.4
  #  "Second tier" - max. impr. -3.10  meV, min. impr. -0.64 meV
  #     hydro 5 f 16.8
  #     hydro 6 h 13.2
  #     hydro 4 p 5
  #     hydro 4 d 4.3
  #     hydro 5 s 17.2
  #  "Third tier" - max. impr. -0.48  meV, min. impr. -0.12 meV
  #     hydro 4 f 19.2
  #     hydro 5 f 8.4
  #     hydro 6 p 12
  #     hydro 5 g 12.8
  #     hydro 5 d 8.4
  #     hydro 5 s 5.8
  #     hydro 6 h 15.2
  
  
  ################################################################################
  #
  #  FHI-aims code project
  #  Volker Blum, 2017
  #
  #  Suggested "intermediate" defaults for N atom (to be pasted into control.in file)
  #
  ################################################################################
    species        N
  #     global species definitions
      nucleus             7
      mass                14.0067
  #
      l_hartree           6
  #
      cut_pot             4.0  2.0  1.0
      basis_dep_cutoff    1e-4
  #
      radial_base         35 7.0
      radial_multiplier   2
      angular_grids       specified
        division   0.1841   50
        division   0.3514  110
        division   0.5126  194
        division   0.6292  302
        division   0.6939  434
  #      division   0.7396  590
  #      division   0.7632  770
  #      division   0.8122  974
  #      division   1.1604 1202
  #      outer_grid  974
        outer_grid  434
  ################################################################################
  #
  #  Definition of "minimal" basis
  #
  ################################################################################
  #     valence basis states
      valence      2  s   2.
      valence      2  p   3.
  #     ion occupancy
      ion_occ      2  s   1.
      ion_occ      2  p   2.
  ################################################################################
  #
  #  Suggested additional basis functions. For production calculations,
  #  uncomment them one after another (the most important basis functions are
  #  listed first).
  #
  #  Constructed for dimers: 1.0 A, 1.1 A, 1.5 A, 2.0 A, 3.0 A
  #
  ################################################################################
  #  "First tier" - improvements: -1193.42 meV to -220.60 meV
       hydro 2 p 1.8
       hydro 3 d 6.8
       hydro 3 s 5.8
  #  "Second tier" - improvements: -80.21 meV to -6.86 meV
       hydro 4 f 10.8
  #     hydro 3 p 5.8
  #     hydro 1 s 0.8
    for_aux    hydro 5 g 16
  #     hydro 3 d 4.9
  #  "Third tier" - improvements: -4.29 meV to -0.53 meV
  #     hydro 3 s 16
  #     ionic 2 p auto
  #     hydro 3 d 6.6
  #     hydro 4 f 11.6
  #  "Fourth tier" - improvements: -0.75 meV to -0.25 meV
  #     hydro 2 p 4.5
  #     hydro 2 s 2.4
  #     hydro 5 g 14.4
  #     hydro 4 d 14.4
  #     hydro 4 f 16.8
  # Further basis functions - -0.21 meV and below
  #     hydro 3 p 14.8
  #     hydro 3 s 4.4
  #     hydro 3 d 19.6
  #     hydro 5 g 12.8
  ################################################################################
  #
  #  FHI-aims code project
  #  Volker Blum, 2017
  #
  #  Suggested "intermediate" defaults for H atom (to be pasted into control.in file)
  #
  ################################################################################
    species        H
  #     global species definitions
      nucleus             1
      mass                1.00794
  #
      l_hartree           6
  #
      cut_pot             4.0  2.0  1.0
      basis_dep_cutoff    1e-4
  #
      radial_base         24 7.0
      radial_multiplier   2
      angular_grids       specified
        division   0.1930   50
        division   0.3175  110
        division   0.4293  194
        division   0.5066  302
        division   0.5626  434
  #      division   0.5922  590
  #      division   0.6227  974
  #      division   0.6868 1202
  #      outer_grid  770
        outer_grid  434
  ################################################################################
  #
  #  Definition of "minimal" basis
  #
  ################################################################################
  #     valence basis states
      valence      1  s   1.
  #     ion occupancy
      ion_occ      1  s   0.5
  ################################################################################
  #
  #  Suggested additional basis functions. For production calculations,
  #  uncomment them one after another (the most important basis functions are
  #  listed first).
  #
  #  Basis constructed for dimers: 0.5 A, 0.7 A, 1.0 A, 1.5 A, 2.5 A
  #
  ################################################################################
  #  "First tier" - improvements: -1014.90 meV to -62.69 meV
       hydro 2 s 2.1
       hydro 2 p 3.5
  #  "Second tier" - improvements: -12.89 meV to -1.83 meV
       hydro 1 s 0.85
  #     hydro 2 p 3.7
  #     hydro 2 s 1.2
    for_aux    hydro 3 d 7
  #  "Third tier" - improvements: -0.25 meV to -0.12 meV
  #     hydro 4 f 11.2
  #     hydro 3 p 4.8
  #     hydro 4 d 9
  #     hydro 3 s 3.2
  ################################################################################
  #
  #  FHI-aims code project
  #  Volker Blum, 2018
  #
  #  Suggested "intermediate" defaults for As atom (to be pasted into control.in file)
  #
  #  2020/09/15 These "intermediate" settings are identical to past "tight" defaults
  #             and differ only in the "g" function that is now included in "tight".
  #
  ################################################################################
    species        As
  #
      nucleus             33
      mass                74.92160
  #
      l_hartree           6
  #
      cut_pot             4.0          2.0  1.0
      basis_dep_cutoff    1e-4
  #
      radial_base         55 7.0
      radial_multiplier   2
      angular_grids       specified
        division   0.3346   50
        division   0.6815  110
        division   0.9821  194
        division   1.2024  302
        division   1.4689  434
  #      division   1.5802  590
  #      division   1.6697  770
  #      division   1.7649  974
  #      division   2.6635 1202
  #      outer_grid  1202
        outer_grid  434
  ################################################################################
  #
  #  Definition of "minimal" basis
  #
  ################################################################################
  #     valence basis states
      valence      4  s   2.
      valence      4  p   3.
      valence      3  d  10.
  #     ion occupancy
      ion_occ      4  s   1.
      ion_occ      4  p   2.
      ion_occ      3  d  10.
  ################################################################################
  #
  #  Suggested additional basis functions. For production calculations,
  #  uncomment them one after another (the most important basis functions are
  #  listed first).
  #
  #  Constructed for dimers: 1.75 A, 2.10 A, 2.50 A, 3.00 A, 4.00 A
  #
  ################################################################################
  #  "First tier" - improvements: -385.12 meV to -54.94 meV
       hydro 3 d 4
       hydro 2 p 1.5
       hydro 4 f 6.8
       ionic 4 s auto
  #  "Second tier" - improvements: -22.14 meV to -3.21 meV
  #     hydro 5 g 10
  #     hydro 6 h 13.6
  #     hydro 4 p 4.3
  #     hydro 4 f 15.6
  #     hydro 4 d 5.4
  #     hydro 1 s 0.6
  #  "Third tier" - improvements: -0.57 meV to -0.13 meV
  #     hydro 5 g 16.4
  #     hydro 4 f 7.4
  #     hydro 5 d 7.4
  #     ionic 4 p auto
  #     hydro 3 s 2.6
  #  "Fourth tier" - improvements: -0.30 meV and below
  #     hydro 3 p 3
  #     hydro 6 h 18.4
  #     hydro 5 d 11.2
  #     hydro 5 f 15.2
  #     hydro 5 g 13.6
  #     hydro 5 s 6.2
  ################################################################################
  #
  #  FHI-aims code project
  #  Volker Blum, 2018
  #
  #  Suggested "intermediate" defaults for S atom (to be pasted into control.in file)
  #
  ################################################################################
    species        S
  #     global species definitions
      nucleus             16
      mass                32.065
  #
      l_hartree           6
  #
      cut_pot             4.0          2.0  1.0
      basis_dep_cutoff    1e-4
  #
      radial_base         44 7.0
      radial_multiplier   2
      angular_grids       specified
        division   0.4665  110
        division   0.5810  194
        division   0.7139  302
        division   0.8274  434
  #      division   0.9105  590
  #      division   1.0975  770
  #      division   1.2028  974
  #      outer_grid  974
        outer_grid  434
  ################################################################################
  #
  #  Definition of "minimal" basis
  #
  ################################################################################
  #     valence basis states
      valence      3  s   2.
      valence      3  p   4.
  #     ion occupancy
      ion_occ      3  s   1.
      ion_occ      3  p   3.
  ################################################################################
  #
  #  Suggested additional basis functions. For production calculations,
  #  uncomment them one after another (the most important basis functions are
  #  listed first).
  #
  #  Constructed for dimers: 1.6 A, 1.9 A, 2.5 A, 3.25 A, 4.0 A
  #
  ################################################################################
  #  "First tier" - improvements: -652.81 meV to -45.53 meV
       ionic 3 d auto
       hydro 2 p 1.8
       hydro 4 f 7
       ionic 3 s auto
  #  "Second tier" - improvements: -30.20 meV to -1.74 meV
  #     hydro 4 d 6.2
  for_aux     hydro 5 g 10.8
  #     hydro 4 p 4.9
  #     hydro 5 f 10
  #     hydro 1 s 0.8
  #  "Third tier" - improvements: -1.04 meV to -0.20 meV
  #     hydro 3 d 3.9
  #     hydro 3 d 2.7
  #     hydro 5 g 12
  #     hydro 4 p 10.4
  #     hydro 5 f 12.4
  #     hydro 2 s 1.9
  #  "Fourth tier" - improvements: -0.35 meV to -0.06 meV
  #     hydro 4 d 10.4
  #     hydro 4 p 7.2
  #     hydro 4 d 10
  #     hydro 5 g 19.2
  #     hydro 4 s 12
  
  -----------------------------------------------------------------------
  Completed first pass over input file control.in .
  -----------------------------------------------------------------------
  
  
  -----------------------------------------------------------------------
  Parsing geometry.in (first pass over file, find array dimensions only).
  The contents of geometry.in will be repeated verbatim below
  unless switched off by setting 'verbatim_writeout .false.' .
  in the first line of geometry.in .
  -----------------------------------------------------------------------
  
  #=======================================================
  # FHI-aims file: geometries_new/geometry-003000.in
  # Created using the Atomic Simulation Environment (ASE)
  # Thu Apr 14 11:08:43 2022
  #=======================================================
  lattice_vector -3.3900000000000001 3.3900000000000001 4.1384999999999996
  lattice_vector 3.3900000000000001 -3.3900000000000001 4.1384999999999996
  lattice_vector 3.3900000000000001 3.3900000000000001 -4.1384999999999996
  atom 0.1559970000000044 -0.1748969999999985 4.1718259999999887 N
  atom -0.6158750000000008 -0.4177010000000001 3.5571799999999936 H
  atom 0.7671150000000000 0.6003890000000002 3.8694359999999999 H
  atom -0.3067739999999980 0.3183860000000021 4.9444880000000015 H
  atom 0.8188110000000013 -0.9194719999999967 4.4367139999999896 H
  atom 0.0668530000000012 -0.1048560000000008 0.0432210000000022 As
  atom 2.0279799999999999 2.1032190000000002 2.9146290000000001 S
  atom 1.1616249999999999 1.2007890000000001 -1.3608960000000001 S
  atom -2.0221189999999929 1.9612339999999997 5.3359189999999952 S
  atom 2.2005950000000003 -2.2134020000000030 5.5438250000000222 S
  atom 3.3688549999999999 0.1186840000000000 2.0622669999999999 Ag
  atom -0.0452270000000000 3.4712869999999998 2.0341700000000000 Ag
  
  -----------------------------------------------------------------------
  Completed first pass over input file geometry.in .
  -----------------------------------------------------------------------
  

  Basic array size parameters:
  | Number of species                 :        5
  | Number of atoms                   :       12
  | Number of lattice vectors         :        3
  | Max. basis fn. angular momentum   :        4
  | Max. atomic/ionic basis occupied n:        5
  | Max. number of basis fn. types    :        3
  | Max. radial fns per species/type  :       10
  | Max. logarithmic grid size        :     1446
  | Max. radial integration grid size :      125
  | Max. angular integration grid size:      434
  | Max. angular grid division number :        8
  | Radial grid for Hartree potential :     1446
  | Number of spin channels           :        1

------------------------------------------------------------
          Reading file control.in.
------------------------------------------------------------

  XC: Using HSE-functional with OMEGA =  0.110000E+00 <units>.
  XC: For the actual units (bohr^-1 or Angstrom^-1), see below.
  hse_unit: Unit for the HSE06 hybrid functional screening parameter set to bohr^(-1).
  Spin treatment: No spin polarisation.
  Scalar relativistic treatment of kinetic energy: on-site free-atom approximation to ZORA.
  Found k-point grid:        10        10        10
  Calculating non-self-consistent second-variational spin-orbit coupling after scf-cycle
  Number of empty states per atom:      100
  Using version 5 of calculate_fock_matrix

  Plot band    1
  | begin  0.000000  0.000000  0.000000
  | end    0.000000  0.000000  0.500000
  | number of points:   21

  Plot band    2
  | begin  0.000000  0.000000  0.500000
  | end   -0.335500  0.335500  0.500000
  | number of points:   21

  Plot band    3
  | begin -0.335500  0.335500  0.500000
  | end   -0.417700  0.417700  0.417700
  | number of points:   21

  Plot band    4
  | begin -0.417700  0.417700  0.417700
  | end    0.000000  0.000000  0.000000
  | number of points:   21

  Plot band    5
  | begin  0.000000  0.000000  0.000000
  | end    0.500000  0.500000 -0.500000
  | number of points:   21

  Plot band    6
  | begin  0.500000  0.500000 -0.500000
  | end    0.417700  0.582300 -0.417700
  | number of points:   21

  Plot band    7
  | begin  0.417700  0.582300 -0.417700
  | end    0.000000  0.500000  0.000000
  | number of points:   21

  Plot band    8
  | begin  0.000000  0.500000  0.000000
  | end    0.250000  0.250000  0.250000
  | number of points:   21

  Plot band    9
  | begin  0.250000  0.250000  0.250000
  | end    0.500000  0.500000 -0.335500
  | number of points:   21

  Plot band   10
  | begin  0.500000  0.500000 -0.335500
  | end    0.500000  0.500000 -0.500000
  | number of points:   21

  Plot band   11
  | begin  0.000000  0.000000  0.500000
  | end    0.250000  0.250000  0.250000
  | number of points:   21
  Calculating density of states with
  | energy interval :-20.000000 10.000000
  | points & tetrahedron method :  6001
  Calculating angular-momentum projected DOS with 
  | energy interval :-20.000000 10.000000
  | points & tetrahedron :  6001
 
  Reading configuration options for species Ag                  .
  | Found nuclear charge :  47.0000
  | Found atomic mass :    107.868200000000      amu
  | Found l_max for Hartree potential  :   6
  | Found cutoff potl. onset [A], width [A], scale factor :    4.00000    2.00000    1.00000
  | Threshold for basis-dependent cutoff potential is   0.100000E-03
  | Found data for basic radial integration grid :    62 points, outermost radius =    7.000 A
  | Found multiplier for basic radial grid :   2
  | Found angular grid specification: user-specified.
  | Specified grid contains     6 separate shells.
  | Check grid settings after all constraints further below.
  | Found free-atom valence shell :  5 s   1.000
  | Found free-atom valence shell :  4 p   6.000
  | Found free-atom valence shell :  4 d  10.000
  | Found free-ion valence shell :  5 s   0.000
  | Found free-ion valence shell :  4 p   6.000
  | Found free-ion valence shell :  4 d   9.000
  | Found ionic basis function :  5 p , default cutoff radius.
  | Found hydrogenic basis function :  4 f   7.600
  | Found hydrogenic basis function :  3 s   2.600
  | Found hydrogenic extended basis function :  5 g   9.800
  | Found hydrogenic basis function :  4 d   8.400
  Species Ag                  : Missing cutoff potential type.
  Defaulting to exp(1/x)/(1-x)^2 type cutoff potential.
  Species Ag: No 'logarithmic' tag. Using default grid for free atom:
  | Default logarithmic grid data [bohr] : 0.1000E-03 0.1000E+03 0.1012E+01
  | Will include ionic basis functions of  2.0-fold positive Ag                   ion.
  Species Ag: On-site basis accuracy parameter (for Gram-Schmidt orthonormalisation) not specified.
  Using default value basis_acc =  0.1000000E-03.
  Species Ag                  : Using default innermost maximum threshold i_radial=  2 for radial functions.
  Species Ag                  : Default cutoff onset for free atom density etc. : 0.40000000E+01 AA.
  Species Ag                  : Basic radial grid will be enhanced according to radial_multiplier =   2, to contain   125 grid points.
 
  Reading configuration options for species N                   .
  | Found nuclear charge :   7.0000
  | Found atomic mass :    14.0067000000000      amu
  | Found l_max for Hartree potential  :   6
  | Found cutoff potl. onset [A], width [A], scale factor :    4.00000    2.00000    1.00000
  | Threshold for basis-dependent cutoff potential is   0.100000E-03
  | Found data for basic radial integration grid :    35 points, outermost radius =    7.000 A
  | Found multiplier for basic radial grid :   2
  | Found angular grid specification: user-specified.
  | Specified grid contains     6 separate shells.
  | Check grid settings after all constraints further below.
  | Found free-atom valence shell :  2 s   2.000
  | Found free-atom valence shell :  2 p   3.000
  | Found free-ion valence shell :  2 s   1.000
  | Found free-ion valence shell :  2 p   2.000
  | Found hydrogenic basis function :  2 p   1.800
  | Found hydrogenic basis function :  3 d   6.800
  | Found hydrogenic basis function :  3 s   5.800
  | Found hydrogenic basis function :  4 f  10.800
  | Found hydrogenic extended basis function :  5 g  16.000
  Species N                   : Missing cutoff potential type.
  Defaulting to exp(1/x)/(1-x)^2 type cutoff potential.
  Species N : No 'logarithmic' tag. Using default grid for free atom:
  | Default logarithmic grid data [bohr] : 0.1000E-03 0.1000E+03 0.1012E+01
  Species N : On-site basis accuracy parameter (for Gram-Schmidt orthonormalisation) not specified.
  Using default value basis_acc =  0.1000000E-03.
  Species N                   : Using default innermost maximum threshold i_radial=  2 for radial functions.
  Species N                   : Default cutoff onset for free atom density etc. : 0.40000000E+01 AA.
  Species N                   : Basic radial grid will be enhanced according to radial_multiplier =   2, to contain    71 grid points.
 
  Reading configuration options for species H                   .
  | Found nuclear charge :   1.0000
  | Found atomic mass :    1.00794000000000      amu
  | Found l_max for Hartree potential  :   6
  | Found cutoff potl. onset [A], width [A], scale factor :    4.00000    2.00000    1.00000
  | Threshold for basis-dependent cutoff potential is   0.100000E-03
  | Found data for basic radial integration grid :    24 points, outermost radius =    7.000 A
  | Found multiplier for basic radial grid :   2
  | Found angular grid specification: user-specified.
  | Specified grid contains     6 separate shells.
  | Check grid settings after all constraints further below.
  | Found free-atom valence shell :  1 s   1.000
  | Found free-ion valence shell :  1 s   0.500
  | Found hydrogenic basis function :  2 s   2.100
  | Found hydrogenic basis function :  2 p   3.500
  | Found hydrogenic basis function :  1 s   0.850
  | Found hydrogenic extended basis function :  3 d   7.000
  Species H                   : Missing cutoff potential type.
  Defaulting to exp(1/x)/(1-x)^2 type cutoff potential.
  Species H : No 'logarithmic' tag. Using default grid for free atom:
  | Default logarithmic grid data [bohr] : 0.1000E-03 0.1000E+03 0.1012E+01
  Species H : On-site basis accuracy parameter (for Gram-Schmidt orthonormalisation) not specified.
  Using default value basis_acc =  0.1000000E-03.
  Species H                   : Using default innermost maximum threshold i_radial=  2 for radial functions.
  Species H                   : Default cutoff onset for free atom density etc. : 0.40000000E+01 AA.
  Species H                   : Basic radial grid will be enhanced according to radial_multiplier =   2, to contain    49 grid points.
 
  Reading configuration options for species As                  .
  | Found nuclear charge :  33.0000
  | Found atomic mass :    74.9216000000000      amu
  | Found l_max for Hartree potential  :   6
  | Found cutoff potl. onset [A], width [A], scale factor :    4.00000    2.00000    1.00000
  | Threshold for basis-dependent cutoff potential is   0.100000E-03
  | Found data for basic radial integration grid :    55 points, outermost radius =    7.000 A
  | Found multiplier for basic radial grid :   2
  | Found angular grid specification: user-specified.
  | Specified grid contains     6 separate shells.
  | Check grid settings after all constraints further below.
  | Found free-atom valence shell :  4 s   2.000
  | Found free-atom valence shell :  4 p   3.000
  | Found free-atom valence shell :  3 d  10.000
  | Found free-ion valence shell :  4 s   1.000
  | Found free-ion valence shell :  4 p   2.000
  | Found free-ion valence shell :  3 d  10.000
  | Found hydrogenic basis function :  3 d   4.000
  | Found hydrogenic basis function :  2 p   1.500
  | Found hydrogenic basis function :  4 f   6.800
  | Found ionic basis function :  4 s , default cutoff radius.
  Species As                  : Missing cutoff potential type.
  Defaulting to exp(1/x)/(1-x)^2 type cutoff potential.
  Species As: No 'logarithmic' tag. Using default grid for free atom:
  | Default logarithmic grid data [bohr] : 0.1000E-03 0.1000E+03 0.1012E+01
  | Will include ionic basis functions of  2.0-fold positive As                   ion.
  Species As: On-site basis accuracy parameter (for Gram-Schmidt orthonormalisation) not specified.
  Using default value basis_acc =  0.1000000E-03.
  Species As                  : Using default innermost maximum threshold i_radial=  2 for radial functions.
  Species As                  : Default cutoff onset for free atom density etc. : 0.40000000E+01 AA.
  Species As                  : Basic radial grid will be enhanced according to radial_multiplier =   2, to contain   111 grid points.
 
  Reading configuration options for species S                   .
  | Found nuclear charge :  16.0000
  | Found atomic mass :    32.0650000000000      amu
  | Found l_max for Hartree potential  :   6
  | Found cutoff potl. onset [A], width [A], scale factor :    4.00000    2.00000    1.00000
  | Threshold for basis-dependent cutoff potential is   0.100000E-03
  | Found data for basic radial integration grid :    44 points, outermost radius =    7.000 A
  | Found multiplier for basic radial grid :   2
  | Found angular grid specification: user-specified.
  | Specified grid contains     5 separate shells.
  | Check grid settings after all constraints further below.
  | Found free-atom valence shell :  3 s   2.000
  | Found free-atom valence shell :  3 p   4.000
  | Found free-ion valence shell :  3 s   1.000
  | Found free-ion valence shell :  3 p   3.000
  | Found ionic basis function :  3 d , default cutoff radius.
  | Found hydrogenic basis function :  2 p   1.800
  | Found hydrogenic basis function :  4 f   7.000
  | Found ionic basis function :  3 s , default cutoff radius.
  | Found hydrogenic extended basis function :  5 g  10.800
  Species S                   : Missing cutoff potential type.
  Defaulting to exp(1/x)/(1-x)^2 type cutoff potential.
  Species S : No 'logarithmic' tag. Using default grid for free atom:
  | Default logarithmic grid data [bohr] : 0.1000E-03 0.1000E+03 0.1012E+01
  | Will include ionic basis functions of  2.0-fold positive S                    ion.
  Species S : On-site basis accuracy parameter (for Gram-Schmidt orthonormalisation) not specified.
  Using default value basis_acc =  0.1000000E-03.
  Species S                   : Using default innermost maximum threshold i_radial=  2 for radial functions.
  Species S                   : Default cutoff onset for free atom density etc. : 0.40000000E+01 AA.
  Species S                   : Basic radial grid will be enhanced according to radial_multiplier =   2, to contain    89 grid points.
 
  Finished reading input file 'control.in'.
 
------------------------------------------------------------


------------------------------------------------------------
          Reading geometry description geometry.in.
------------------------------------------------------------
  | The smallest distance between any two atoms is         1.01613477 AA.
  | The first atom of this pair is atom number                      1 .
  | The second atom of this pair is atom number                     2 .
  | Wigner-Seitz cell of the first atom image           0     1     0 .
  | (The Wigner-Seitz cell of the second atom is 0 0 0  by definition.)

  Symmetry information by spglib:
  | Precision set to  0.1E-04
  | Number of Operations  : 1
  | Space group           : 1
  | International         : P1
  | Schoenflies           : C1^1
  Input structure read successfully.
  The structure contains       12 atoms,  and a total of        202.000 electrons.

  Input geometry:
  | Unit cell:
  |       -3.39000000        3.39000000        4.13850000
  |        3.39000000       -3.39000000        4.13850000
  |        3.39000000        3.39000000       -4.13850000
  | Atomic structure:
  |       Atom                x [A]            y [A]            z [A]
  |    1: Species N             0.15599700       -0.17489700        4.17182600
  |    2: Species H            -0.61587500       -0.41770100        3.55718000
  |    3: Species H             0.76711500        0.60038900        3.86943600
  |    4: Species H            -0.30677400        0.31838600        4.94448800
  |    5: Species H             0.81881100       -0.91947200        4.43671400
  |    6: Species As            0.06685300       -0.10485600        0.04322100
  |    7: Species S             2.02798000        2.10321900        2.91462900
  |    8: Species S             1.16162500        1.20078900       -1.36089600
  |    9: Species S            -2.02211900        1.96123400        5.33591900
  |   10: Species S             2.20059500       -2.21340200        5.54382500
  |   11: Species Ag            3.36885500        0.11868400        2.06226700
  |   12: Species Ag           -0.04522700        3.47128700        2.03417000

  Lattice parameters for 3D lattice (in Angstroms) :     6.333355    6.333355    6.333355
  Angle(s) between unit vectors (in degrees)       :   115.276726  115.276726   98.396283


  Quantities derived from the lattice vectors:
  | Reciprocal lattice vector 1: -0.000000  0.926723  0.759114
  | Reciprocal lattice vector 2:  0.926723  0.000000  0.759114
  | Reciprocal lattice vector 3:  0.926723  0.926723  0.000000
  | Unit cell volume                               :   0.190240E+03  A^3

  Fractional coordinates:
                         L1                L2                L3
       atom_frac         0.47823032        0.52703475       -0.00278761  N
       atom_frac         0.36815901        0.33892980       -0.15244484  H
       atom_frac         0.55604552        0.58063638        0.20169676  H
       atom_frac         0.64433641        0.55212992        0.00171268  H
       atom_frac         0.40041390        0.65679782       -0.01484676  H
       atom_frac        -0.01024367        0.01508214       -0.00560516  As
       atom_frac         0.66234521        0.65124801        0.60932139  S
       atom_frac         0.01268853        0.00691213        0.34843864  S
       atom_frac         0.93393579        0.34642060       -0.00898009  S
       atom_frac         0.34332629        0.99435829       -0.00188894  S
       atom_frac         0.26666135        0.74603761        0.51438628  Ag
       atom_frac         0.75775098        0.23909110        0.50531858  Ag

 
  Finished reading input file 'control.in'.
 

------------------------------------------------------------
          Reading geometry description geometry.in.
------------------------------------------------------------
 
  Consistency checks for stacksize environment parameter are next.
 
  | Maximum stacksize for task 0: unlimited
  | Maximum stacksize for task 1: unlimited
  | Maximum stacksize for task 2: unlimited
  | Maximum stacksize for task 3: unlimited
  | Maximum stacksize for task 4: unlimited
  | Maximum stacksize for task 5: unlimited
  | Maximum stacksize for task 6: unlimited
  | Maximum stacksize for task 7: unlimited
  | Maximum stacksize for task 8: unlimited
  | Maximum stacksize for task 9: unlimited
  | Maximum stacksize for task 10: unlimited
  | Maximum stacksize for task 11: unlimited
  | Maximum stacksize for task 12: unlimited
  | Maximum stacksize for task 13: unlimited
  | Maximum stacksize for task 14: unlimited
  | Maximum stacksize for task 15: unlimited
  | Maximum stacksize for task 16: unlimited
  | Maximum stacksize for task 17: unlimited
  | Maximum stacksize for task 18: unlimited
  | Maximum stacksize for task 19: unlimited
  | Maximum stacksize for task 20: unlimited
  | Maximum stacksize for task 21: unlimited
  | Maximum stacksize for task 22: unlimited
  | Maximum stacksize for task 23: unlimited
  | Maximum stacksize for task 24: unlimited
  | Maximum stacksize for task 25: unlimited
  | Maximum stacksize for task 26: unlimited
  | Maximum stacksize for task 27: unlimited
  | Maximum stacksize for task 28: unlimited
  | Maximum stacksize for task 29: unlimited
  | Maximum stacksize for task 30: unlimited
  | Maximum stacksize for task 31: unlimited
  | Maximum stacksize for task 32: unlimited
  | Maximum stacksize for task 33: unlimited
  | Maximum stacksize for task 34: unlimited
  | Maximum stacksize for task 35: unlimited
  | Maximum stacksize for task 36: unlimited
  | Maximum stacksize for task 37: unlimited
  | Maximum stacksize for task 38: unlimited
  | Maximum stacksize for task 39: unlimited
  | Maximum stacksize for task 40: unlimited
  | Maximum stacksize for task 41: unlimited
  | Maximum stacksize for task 42: unlimited
  | Maximum stacksize for task 43: unlimited
  | Maximum stacksize for task 44: unlimited
  | Maximum stacksize for task 45: unlimited
  | Maximum stacksize for task 46: unlimited
  | Maximum stacksize for task 47: unlimited
  | Maximum stacksize for task 48: unlimited
  | Maximum stacksize for task 49: unlimited
  | Maximum stacksize for task 50: unlimited
  | Maximum stacksize for task 51: unlimited
  | Maximum stacksize for task 52: unlimited
  | Maximum stacksize for task 53: unlimited
  | Maximum stacksize for task 54: unlimited
  | Maximum stacksize for task 55: unlimited
  | Maximum stacksize for task 56: unlimited
  | Maximum stacksize for task 57: unlimited
  | Maximum stacksize for task 58: unlimited
  | Maximum stacksize for task 59: unlimited
  | Maximum stacksize for task 60: unlimited
  | Maximum stacksize for task 61: unlimited
  | Maximum stacksize for task 62: unlimited
  | Maximum stacksize for task 63: unlimited
  | Maximum stacksize for task 64: unlimited
  | Maximum stacksize for task 65: unlimited
  | Maximum stacksize for task 66: unlimited
  | Maximum stacksize for task 67: unlimited
  | Maximum stacksize for task 68: unlimited
  | Maximum stacksize for task 69: unlimited
  | Maximum stacksize for task 70: unlimited
  | Maximum stacksize for task 71: unlimited
  | Maximum stacksize for task 72: unlimited
  | Maximum stacksize for task 73: unlimited
  | Maximum stacksize for task 74: unlimited
  | Maximum stacksize for task 75: unlimited
  | Maximum stacksize for task 76: unlimited
  | Maximum stacksize for task 77: unlimited
  | Maximum stacksize for task 78: unlimited
  | Maximum stacksize for task 79: unlimited
  | Maximum stacksize for task 80: unlimited
  | Maximum stacksize for task 81: unlimited
  | Maximum stacksize for task 82: unlimited
  | Maximum stacksize for task 83: unlimited
  | Maximum stacksize for task 84: unlimited
  | Maximum stacksize for task 85: unlimited
  | Maximum stacksize for task 86: unlimited
  | Maximum stacksize for task 87: unlimited
  | Maximum stacksize for task 88: unlimited
  | Maximum stacksize for task 89: unlimited
  | Maximum stacksize for task 90: unlimited
  | Maximum stacksize for task 91: unlimited
  | Maximum stacksize for task 92: unlimited
  | Maximum stacksize for task 93: unlimited
  | Maximum stacksize for task 94: unlimited
  | Maximum stacksize for task 95: unlimited
  | Maximum stacksize for task 96: unlimited
  | Maximum stacksize for task 97: unlimited
  | Maximum stacksize for task 98: unlimited
  | Maximum stacksize for task 99: unlimited
  | Maximum stacksize for task 100: unlimited
  | Maximum stacksize for task 101: unlimited
  | Maximum stacksize for task 102: unlimited
  | Maximum stacksize for task 103: unlimited
  | Maximum stacksize for task 104: unlimited
  | Maximum stacksize for task 105: unlimited
  | Maximum stacksize for task 106: unlimited
  | Maximum stacksize for task 107: unlimited
  | Maximum stacksize for task 108: unlimited
  | Maximum stacksize for task 109: unlimited
  | Maximum stacksize for task 110: unlimited
  | Maximum stacksize for task 111: unlimited
  | Maximum stacksize for task 112: unlimited
  | Maximum stacksize for task 113: unlimited
  | Maximum stacksize for task 114: unlimited
  | Maximum stacksize for task 115: unlimited
  | Maximum stacksize for task 116: unlimited
  | Maximum stacksize for task 117: unlimited
  | Maximum stacksize for task 118: unlimited
  | Maximum stacksize for task 119: unlimited
  | Maximum stacksize for task 120: unlimited
  | Maximum stacksize for task 121: unlimited
  | Maximum stacksize for task 122: unlimited
  | Maximum stacksize for task 123: unlimited
  | Maximum stacksize for task 124: unlimited
  | Maximum stacksize for task 125: unlimited
  | Maximum stacksize for task 126: unlimited
  | Maximum stacksize for task 127: unlimited
  | Maximum stacksize for task 128: unlimited
  | Maximum stacksize for task 129: unlimited
  | Maximum stacksize for task 130: unlimited
  | Maximum stacksize for task 131: unlimited
  | Maximum stacksize for task 132: unlimited
  | Maximum stacksize for task 133: unlimited
  | Maximum stacksize for task 134: unlimited
  | Maximum stacksize for task 135: unlimited
  | Maximum stacksize for task 136: unlimited
  | Maximum stacksize for task 137: unlimited
  | Maximum stacksize for task 138: unlimited
  | Maximum stacksize for task 139: unlimited
  | Maximum stacksize for task 140: unlimited
  | Maximum stacksize for task 141: unlimited
  | Maximum stacksize for task 142: unlimited
  | Maximum stacksize for task 143: unlimited
  | Maximum stacksize for task 144: unlimited
  | Maximum stacksize for task 145: unlimited
  | Maximum stacksize for task 146: unlimited
  | Maximum stacksize for task 147: unlimited
  | Maximum stacksize for task 148: unlimited
  | Maximum stacksize for task 149: unlimited
  | Maximum stacksize for task 150: unlimited
  | Maximum stacksize for task 151: unlimited
  | Maximum stacksize for task 152: unlimited
  | Maximum stacksize for task 153: unlimited
  | Maximum stacksize for task 154: unlimited
  | Maximum stacksize for task 155: unlimited
  | Maximum stacksize for task 156: unlimited
  | Maximum stacksize for task 157: unlimited
  | Maximum stacksize for task 158: unlimited
  | Maximum stacksize for task 159: unlimited
  | Maximum stacksize for task 160: unlimited
  | Maximum stacksize for task 161: unlimited
  | Maximum stacksize for task 162: unlimited
  | Maximum stacksize for task 163: unlimited
  | Maximum stacksize for task 164: unlimited
  | Maximum stacksize for task 165: unlimited
  | Maximum stacksize for task 166: unlimited
  | Maximum stacksize for task 167: unlimited
  | Maximum stacksize for task 168: unlimited
  | Maximum stacksize for task 169: unlimited
  | Current stacksize for task 0: unlimited
  | Current stacksize for task 1: unlimited
  | Current stacksize for task 2: unlimited
  | Current stacksize for task 3: unlimited
  | Current stacksize for task 4: unlimited
  | Current stacksize for task 5: unlimited
  | Current stacksize for task 6: unlimited
  | Current stacksize for task 7: unlimited
  | Current stacksize for task 8: unlimited
  | Current stacksize for task 9: unlimited
  | Current stacksize for task 10: unlimited
  | Current stacksize for task 11: unlimited
  | Current stacksize for task 12: unlimited
  | Current stacksize for task 13: unlimited
  | Current stacksize for task 14: unlimited
  | Current stacksize for task 15: unlimited
  | Current stacksize for task 16: unlimited
  | Current stacksize for task 17: unlimited
  | Current stacksize for task 18: unlimited
  | Current stacksize for task 19: unlimited
  | Current stacksize for task 20: unlimited
  | Current stacksize for task 21: unlimited
  | Current stacksize for task 22: unlimited
  | Current stacksize for task 23: unlimited
  | Current stacksize for task 24: unlimited
  | Current stacksize for task 25: unlimited
  | Current stacksize for task 26: unlimited
  | Current stacksize for task 27: unlimited
  | Current stacksize for task 28: unlimited
  | Current stacksize for task 29: unlimited
  | Current stacksize for task 30: unlimited
  | Current stacksize for task 31: unlimited
  | Current stacksize for task 32: unlimited
  | Current stacksize for task 33: unlimited
  | Current stacksize for task 34: unlimited
  | Current stacksize for task 35: unlimited
  | Current stacksize for task 36: unlimited
  | Current stacksize for task 37: unlimited
  | Current stacksize for task 38: unlimited
  | Current stacksize for task 39: unlimited
  | Current stacksize for task 40: unlimited
  | Current stacksize for task 41: unlimited
  | Current stacksize for task 42: unlimited
  | Current stacksize for task 43: unlimited
  | Current stacksize for task 44: unlimited
  | Current stacksize for task 45: unlimited
  | Current stacksize for task 46: unlimited
  | Current stacksize for task 47: unlimited
  | Current stacksize for task 48: unlimited
  | Current stacksize for task 49: unlimited
  | Current stacksize for task 50: unlimited
  | Current stacksize for task 51: unlimited
  | Current stacksize for task 52: unlimited
  | Current stacksize for task 53: unlimited
  | Current stacksize for task 54: unlimited
  | Current stacksize for task 55: unlimited
  | Current stacksize for task 56: unlimited
  | Current stacksize for task 57: unlimited
  | Current stacksize for task 58: unlimited
  | Current stacksize for task 59: unlimited
  | Current stacksize for task 60: unlimited
  | Current stacksize for task 61: unlimited
  | Current stacksize for task 62: unlimited
  | Current stacksize for task 63: unlimited
  | Current stacksize for task 64: unlimited
  | Current stacksize for task 65: unlimited
  | Current stacksize for task 66: unlimited
  | Current stacksize for task 67: unlimited
  | Current stacksize for task 68: unlimited
  | Current stacksize for task 69: unlimited
  | Current stacksize for task 70: unlimited
  | Current stacksize for task 71: unlimited
  | Current stacksize for task 72: unlimited
  | Current stacksize for task 73: unlimited
  | Current stacksize for task 74: unlimited
  | Current stacksize for task 75: unlimited
  | Current stacksize for task 76: unlimited
  | Current stacksize for task 77: unlimited
  | Current stacksize for task 78: unlimited
  | Current stacksize for task 79: unlimited
  | Current stacksize for task 80: unlimited
  | Current stacksize for task 81: unlimited
  | Current stacksize for task 82: unlimited
  | Current stacksize for task 83: unlimited
  | Current stacksize for task 84: unlimited
  | Current stacksize for task 85: unlimited
  | Current stacksize for task 86: unlimited
  | Current stacksize for task 87: unlimited
  | Current stacksize for task 88: unlimited
  | Current stacksize for task 89: unlimited
  | Current stacksize for task 90: unlimited
  | Current stacksize for task 91: unlimited
  | Current stacksize for task 92: unlimited
  | Current stacksize for task 93: unlimited
  | Current stacksize for task 94: unlimited
  | Current stacksize for task 95: unlimited
  | Current stacksize for task 96: unlimited
  | Current stacksize for task 97: unlimited
  | Current stacksize for task 98: unlimited
  | Current stacksize for task 99: unlimited
  | Current stacksize for task 100: unlimited
  | Current stacksize for task 101: unlimited
  | Current stacksize for task 102: unlimited
  | Current stacksize for task 103: unlimited
  | Current stacksize for task 104: unlimited
  | Current stacksize for task 105: unlimited
  | Current stacksize for task 106: unlimited
  | Current stacksize for task 107: unlimited
  | Current stacksize for task 108: unlimited
  | Current stacksize for task 109: unlimited
  | Current stacksize for task 110: unlimited
  | Current stacksize for task 111: unlimited
  | Current stacksize for task 112: unlimited
  | Current stacksize for task 113: unlimited
  | Current stacksize for task 114: unlimited
  | Current stacksize for task 115: unlimited
  | Current stacksize for task 116: unlimited
  | Current stacksize for task 117: unlimited
  | Current stacksize for task 118: unlimited
  | Current stacksize for task 119: unlimited
  | Current stacksize for task 120: unlimited
  | Current stacksize for task 121: unlimited
  | Current stacksize for task 122: unlimited
  | Current stacksize for task 123: unlimited
  | Current stacksize for task 124: unlimited
  | Current stacksize for task 125: unlimited
  | Current stacksize for task 126: unlimited
  | Current stacksize for task 127: unlimited
  | Current stacksize for task 128: unlimited
  | Current stacksize for task 129: unlimited
  | Current stacksize for task 130: unlimited
  | Current stacksize for task 131: unlimited
  | Current stacksize for task 132: unlimited
  | Current stacksize for task 133: unlimited
  | Current stacksize for task 134: unlimited
  | Current stacksize for task 135: unlimited
  | Current stacksize for task 136: unlimited
  | Current stacksize for task 137: unlimited
  | Current stacksize for task 138: unlimited
  | Current stacksize for task 139: unlimited
  | Current stacksize for task 140: unlimited
  | Current stacksize for task 141: unlimited
  | Current stacksize for task 142: unlimited
  | Current stacksize for task 143: unlimited
  | Current stacksize for task 144: unlimited
  | Current stacksize for task 145: unlimited
  | Current stacksize for task 146: unlimited
  | Current stacksize for task 147: unlimited
  | Current stacksize for task 148: unlimited
  | Current stacksize for task 149: unlimited
  | Current stacksize for task 150: unlimited
  | Current stacksize for task 151: unlimited
  | Current stacksize for task 152: unlimited
  | Current stacksize for task 153: unlimited
  | Current stacksize for task 154: unlimited
  | Current stacksize for task 155: unlimited
  | Current stacksize for task 156: unlimited
  | Current stacksize for task 157: unlimited
  | Current stacksize for task 158: unlimited
  | Current stacksize for task 159: unlimited
  | Current stacksize for task 160: unlimited
  | Current stacksize for task 161: unlimited
  | Current stacksize for task 162: unlimited
  | Current stacksize for task 163: unlimited
  | Current stacksize for task 164: unlimited
  | Current stacksize for task 165: unlimited
  | Current stacksize for task 166: unlimited
  | Current stacksize for task 167: unlimited
  | Current stacksize for task 168: unlimited
  | Current stacksize for task 169: unlimited
 
  Consistency checks for the contents of control.in are next.
 
  HSE06 screening parameters: omega_HF  =      0.11000000 bohr^-1, and
                              omega_PBE =      0.11000000 bohr^-1.
  MPI_IN_PLACE appears to work with this MPI implementation.
  | Keeping use_mpi_in_place .true. (see manual).
  Explicit treatment of the Coulomb operator is needed, but the RI method is not specified.
  Coulomb operator: Defaulting to 'LVL fast' resolution of identity - RI_type = LVL_fast
  Species Ag: Using default value for prodbas_acc =   1.000000E-04.
  Species Ag: Using default value max_l_prodbas =    20.
  Species N: Using default value for prodbas_acc =   1.000000E-04.
  Species N: Using default value max_l_prodbas =    20.
  Species H: Using default value for prodbas_acc =   1.000000E-04.
  Species H: Using default value max_l_prodbas =    20.
  Species As: Using default value for prodbas_acc =   1.000000E-04.
  Species As: Using default value max_l_prodbas =    20.
  Species S: Using default value for prodbas_acc =   1.000000E-04.
  Species S: Using default value max_l_prodbas =    20.
  Target number of points in a grid batch is not set. Defaulting to  100
  Method for grid partitioning is not set. Defaulting to parallel hash+maxmin partitioning.
  Batch size limit is not set. Defaulting to    200
  By default, will store active basis functions for each batch.
  If in need of memory, prune_basis_once .false. can be used to disable this option.
  communication_type for Hartree potential was not specified.
  Defaulting to calc_hartree .
  Defaulting to Pulay charge density mixer.
  Pulay mixer: Number of relevant iterations not set.
  Defaulting to    8 iterations.
  Pulay mixer: Number of initial linear mixing iterations not set.
  Defaulting to    0 iterations.
  Work space size for distributed Hartree potential not set.
  Defaulting to   0.200000E+03 MB.
  Mixing parameter for charge density mixing has not been set.
  Using default: charge_mix_param =     0.0500.
  The mixing parameter will be adjusted in iteration number     2 of the first full s.c.f. cycle only.
  Algorithm-dependent basis array size parameters:
  | n_max_pulay                         :        8
  Maximum number of self-consistency iterations not provided.
  Presetting  1000 iterations.
  Presetting      1001 iterations before the initial mixing cycle
  is restarted anyway using the sc_init_iter criterion / keyword.
  Presetting a factor      1.000 between actual scf density residual
  and density convergence criterion sc_accuracy_rho below which sc_init_iter
  takes no effect.
 * No s.c.f. convergence criteria (sc_accuracy_*) were provided in control.in.
 * The run will proceed with a reasonable default guess, but please check whether.
 * the s.c.f. cycles seem to take too much or too little time.
  Calculation of forces was not defined in control.in. No forces will be calculated.
  Geometry relaxation not requested: no relaxation will be performed.
 * Notice: The s.c.f. convergence criterion sc_accuracy_rho was not provided.
 * We used to stop in this case, and ask the user to provide reasonable
 * scf convergence criteria. However, this led some users to employ criteria
 * that led to extremely long run times, e.g., for simple relaxation.
 * We now preset a default value for sc_accuracy_rho if it is not set.
 * You may still wish to check if this setting is too tight or too loose for your needs.
 * Based on n_atoms and forces and force-correction status, FHI-aims chose sc_accuracy_rho =  0.141421E-05 .
  No accuracy limit for integral partition fn. given. Defaulting to  0.1000E-14.
  No threshold value for u(r) in integrations given. Defaulting to  0.1000E-05.
  No occupation type (smearing scheme) given. Defaulting to Gaussian broadening, width =  0.1000E-01 eV.
  The width will be adjusted in iteration number     2 of the first full s.c.f. cycle only.
  S.C.F. convergence parameters will be adjusted in iteration number     2 of the first full s.c.f. cycle only.
  No accuracy for occupation numbers given. Defaulting to  0.1000E-12.
  No threshold value for occupation numbers given. Defaulting to  0.0000E+00.
  No accuracy for fermi level given. Defaulting to  0.1000E-19.
  Maximum # of iterations to find E_F not set. Defaulting to  200.
  Preferred method for the eigenvalue solver ('KS_method') not specified in 'control.in'.
  Defaulting to serial version, LAPACK (via ELSI), since more k-points than CPUs available.
  Will not use alltoall communication since running on < 1024 CPUs.
  Threshold for basis singularities not set.
  Default threshold for basis singularities:  0.1000E-04
  partition_type (choice of integration weights) for integrals was not specified.
  | Using a version of the partition function of Stratmann and coworkers ('stratmann_sparse').
  | At each grid point, the set of atoms used to build the partition table is smoothly restricted to
  | only those atoms whose free-atom density would be non-zero at that grid point.
  Partitioning for Hartree potential was not defined. Using partition_type for integrals.
  | Adjusted default value of keyword multip_moments_threshold to:       0.10000000E-11
  | This value may affect high angular momentum components of the Hartree potential in periodic systems.
  Threshold for auxiliary basis singularities not set.
  Default threshold for auxiliary basis singularities:  0.1000E-04
  No q(lm)/r^(l+1) cutoff set for long-range Hartree potential.
  | Using default value of  0.100000E-09 .
  | Verify using the multipole_threshold keyword.
  Defaulting to new monopole extrapolation.
  Density update method: automatic selection selected.
  Using density matrix based charge density update.
  Using density matrix based charge density update.
  Using packed matrix style: index .
 * NOTE: You are attempting to run a periodic structure with an exchange treatment
 * which requires a two-electron Coulomb operator (Hartree-Fock or a hybrid functional).
 * The present implementation is reliable to our knowledge, but some things
 * (like band structure output, or perhaps the auxilary basis set for small
 * orbital basis sets - see the "for_aux" keyword) require extra care.
 * Please let us know if you encounter any trouble.
  Coulomb operator: Defaulting to screening threshold for four-center integrals:   0.100000E-06
  Coulomb operator: Defaulting to screening threshold for Coulomb matrix:   0.100000E-09
  Fock matrix calculation: Setting the screening threshold for overlap matrix to coul_mat_threshold:   0.100000E-09
  Coulomb operator: Defaulting to 'LVL_fast' resolution of identity - RI_type = LVL_fast 
  No other resolution of identity version is supported for periodic boundary conditions at present.
  Coulomb operator: Defaulting to logarithmic spherical Bessel transform integrals (use_logsbt .true.).
  HSE with LVL_fast: Also defaulting to logarithmic spherical Bessel transform integrals.
  Defaulting to use full k-point grid (no symmetry reduction).
  Charge integration errors on the 3D integration grid will be compensated
  by explicit normalization and distribution of residual charges.
  Use the "compensate_multipole_errors" flag to change this behaviour.
  LVL not implemented with density matrix yet
  -> switching to transformed overlap
  LVL probably works better with logsbt
  Default to 1D ("use_logsbt") integrations for auxiliary 2-center integrals.
  Default onset of logarithmic r-grid for SBT is -38.000000000000
  Default onset of logarithmic k-grid for SBT is -25.000000000000
  Default range of logarithmic r- and k-grid for SBT is  45.000000000000
  Default number of logarithmic r- and k-grid for SBT is   4096
  * Use logSBT for radial HSE integration, too
 * NOTE: Band structure and exact exchange are requested at the same time,
 * and exx_band_structure_version is set to 1. 
 * exx_band_structure_version 1 is evaluated in a real-space formalism. It is fast
 * and the preferred version. HOWEVER, it does require a sufficiently
 * dense 'k_grid' to be used for the preceding s.c.f. cycle.
 * If the 'k_grid used for s.c.f. is NOT dense enough, the real-
 * space approach will produce bands that are OBVIOUSLY incorrect.
 * You cannot miss this - they won't look 'slightly' correct. In
 * that case, please try to increase the 'k_grid' parameters used
 * for the s.c.f. cycle. In particular, please avoid k_grid dimensions 
 * of '1' (one) in any dimension. We apologize for this inconvenience.
 * On the bright side, if you use exx_band_structure_version 1 
 * correctly, it will give reliable results without much overhead.
 * 
 * If your band structure does not look reasonable, increase the s.c.f. k-point
 * grid density. Again, it is especially recommended that you avoid dimensions of 1 when
 * specifying k_grid and using this option, even for large unit cells where a
 * gamma-point-only k-grid would be sufficient to converge the accuracy of the
 * calculation.
 * 
 * Please test (e.g., by comparing results from different k_grid settings) when in any doubt.
  Using the following vdw_convergence_threshold for supercell sums
  over the Tkatchenko-Scheffler correction:  0.100000E-05 eV.
  Set 'collect_eigenvectors' to be '.true.' for all serial calculations. This is mandatory.
  Set 'collect_eigenvectors' to be '.true.' for KS_method lapack_fast and serial.
 
  Consistency checks for the contents of geometry.in are next.
 

  Range separation radius for Ewald summation (hartree_convergence_parameter):      3.56513207 bohr.
  Structure-dependent array size parameters: 
  | Maximum number of distinct radial functions  :       50
  | Maximum number of basis functions            :      342
  | Number of Kohn-Sham states (occupied + empty):      701
------------------------------------------------------------
  Setting Coulomb cut-width to  1.091868692359 * rcut.
  Setting Coulomb cutting radius rcut to 31.666773694995 A.

------------------------------------------------------------
          Preparing all fixed parts of the calculation.
------------------------------------------------------------
  Determining machine precision:
    2.225073858507201E-308
  Setting up grids for atomic and cluster calculations.

  Creating wave function, potential, and density for free atoms.
  Runtime choices for atomic solver:
  | atomic solver xc        : PBE
  | compute density gradient: 1
  | compute kinetic density : F

  Species: Ag

  List of occupied orbitals and eigenvalues:
    n    l              occ      energy [Ha]    energy [eV]
    1    0           2.0000      -958.381320    -26078.8826
    2    0           2.0000      -137.772536     -3748.9815
    3    0           2.0000       -25.146438      -684.2694
    4    0           2.0000        -3.489893       -94.9648
    5    0           1.0000        -0.159328        -4.3355
    2    1           6.0000      -123.530088     -3361.4247
    3    1           6.0000       -20.497985      -557.7785
    4    1           6.0000        -2.148805       -58.4720
    3    2          10.0000       -13.181150      -358.6773
    4    2          10.0000        -0.271392        -7.3849


  Species: N

  List of occupied orbitals and eigenvalues:
    n    l              occ      energy [Ha]    energy [eV]
    1    0           2.0000       -14.144983      -384.9046
    2    0           2.0000        -0.682735       -18.5782
    2    1           3.0000        -0.260361        -7.0848


  Species: H

  List of occupied orbitals and eigenvalues:
    n    l              occ      energy [Ha]    energy [eV]
    1    0           1.0000        -0.238386        -6.4868


  Species: As

  List of occupied orbitals and eigenvalues:
    n    l              occ      energy [Ha]    energy [eV]
    1    0           2.0000      -436.649520    -11881.8380
    2    0           2.0000       -54.755544     -1489.9742
    3    0           2.0000        -6.992637      -190.2793
    4    0           2.0000        -0.530794       -14.4436
    2    1           6.0000       -48.002396     -1306.2117
    3    1           6.0000        -4.910227      -133.6141
    4    1           3.0000        -0.189185        -5.1480
    3    2          10.0000        -1.492027       -40.6001


  Species: S

  List of occupied orbitals and eigenvalues:
    n    l              occ      energy [Ha]    energy [eV]
    1    0           2.0000       -88.680731     -2413.1255
    2    0           2.0000        -7.781719      -211.7513
    3    0           2.0000        -0.633662       -17.2428
    2    1           6.0000        -5.751976      -156.5192
    3    1           4.0000        -0.257086        -6.9957


  Adding cutoff potential to free-atom effective potential.
  Creating fixed part of basis set: Ionic, confined, hydrogenic.
 
  Ag                   ion:

  List of free ionic orbitals and eigenvalues:
    n    l      energy [Ha]    energy [eV]
    1    0      -959.242502    -26102.3166
    2    0      -138.615368     -3771.9161
    3    0       -25.985886      -707.1119
    4    0        -4.320835      -117.5759
    2    1      -124.372537     -3384.3489
    3    1       -21.337322      -580.6181
    4    1        -2.974632       -80.9438
    3    2       -14.020465      -381.5163
    4    2        -1.061785       -28.8926


  List of ionic basis orbitals and eigenvalues:
    n    l      energy [Ha]    energy [eV]    outer radius [A]
    5    1        -0.526846       -14.3362       5.376889

 
  Ag                   hydrogenic:
 
  List of hydrogenic basis orbitals: 
    n    l      effective z      eigenvalue [eV]  inner max. [A]     outer max. [A]     outer radius [A]   
    4    3         7.600000       -49.1164           1.110807           1.110807           4.816681
    3    0         2.600000        -9.8948           0.149597           2.582120           5.509974
    4    2         8.400000       -60.0010           0.428073           1.334373           4.758155
 
  List of extra hydrogenic orbitals for auxiliary basis: 
    n    l      effective z      eigenvalue [eV]  inner max. [A]     outer max. [A]     outer radius [A]   
    5    4         9.800000       -52.2674           1.350786           1.350786           5.120284
 
 
  N                    hydrogenic:
 
  List of hydrogenic basis orbitals: 
    n    l      effective z      eigenvalue [eV]  inner max. [A]     outer max. [A]     outer radius [A]   
    2    1         1.800000       -11.0118           1.177451           1.177451           5.427479
    3    2         6.800000       -69.9029           0.704619           0.704619           3.854246
    3    0         5.800000       -50.8549           0.067388           1.191934           4.629968
    4    3        10.800000       -99.1854           0.786571           0.786571           3.761152
 
  List of extra hydrogenic orbitals for auxiliary basis: 
    n    l      effective z      eigenvalue [eV]  inner max. [A]     outer max. [A]     outer radius [A]   
    5    4        16.000000      -139.3222           0.825990           0.825990           3.625711
 
 
  H                    hydrogenic:
 
  List of hydrogenic basis orbitals: 
    n    l      effective z      eigenvalue [eV]  inner max. [A]     outer max. [A]     outer radius [A]   
    2    0         2.100000       -14.9965           0.193243           1.317208           5.373006
    2    1         3.500000       -41.6672           0.602369           0.602369           4.056063
    1    0         0.850000        -9.8292           0.624871           0.624871           5.373006
 
  List of extra hydrogenic orbitals for auxiliary basis: 
    n    l      effective z      eigenvalue [eV]  inner max. [A]     outer max. [A]     outer radius [A]   
    3    2         7.000000       -74.0753           0.680699           0.680699           3.769201
 
 
  As                   ion:

  List of free ionic orbitals and eigenvalues:
    n    l      energy [Ha]    energy [eV]
    1    0      -437.521171    -11905.5568
    2    0       -55.607242     -1513.1500
    3    0        -7.840974      -213.3638
    4    0        -1.261898       -34.3380
    2    1       -48.854908     -1329.4097
    3    1        -5.758049      -156.6845
    4    1        -0.860696       -23.4207
    3    2        -2.335871       -63.5623


  List of ionic basis orbitals and eigenvalues:
    n    l      energy [Ha]    energy [eV]    outer radius [A]
    4    0        -1.261891       -34.3378       4.258644

 
  As                   hydrogenic:
 
  List of hydrogenic basis orbitals: 
    n    l      effective z      eigenvalue [eV]  inner max. [A]     outer max. [A]     outer radius [A]   
    3    2         4.000000       -24.1871           1.194291           1.194291           5.372135
    2    1         1.500000        -7.6128           1.400007           1.400007           5.438212
    4    3         6.800000       -39.3202           1.238904           1.238904           5.178681
 
 
  S                    ion:

  List of free ionic orbitals and eigenvalues:
    n    l      energy [Ha]    energy [eV]
    1    0       -89.703778     -2440.9640
    2    0        -8.775428      -238.7916
    3    0        -1.470343       -40.0101
    2    1        -6.747660      -183.6132
    3    1        -1.048627       -28.5346


  List of ionic basis orbitals and eigenvalues:
    n    l      energy [Ha]    energy [eV]    outer radius [A]
    3    2        -0.495605       -13.4861       5.386362
    3    0        -1.470336       -40.0099       3.967934

 
  S                    hydrogenic:
 
  List of hydrogenic basis orbitals: 
    n    l      effective z      eigenvalue [eV]  inner max. [A]     outer max. [A]     outer radius [A]   
    2    1         1.800000       -11.0118           1.168531           1.168531           5.452614
    4    3         7.000000       -41.6672           1.212182           1.212182           5.066981
 
  List of extra hydrogenic orbitals for auxiliary basis: 
    n    l      effective z      eigenvalue [eV]  inner max. [A]     outer max. [A]     outer radius [A]   
    5    4        10.800000       -63.4785           1.227092           1.227092           4.766538
 
  Creating atomic-like basis functions for current effective potential.

  Species Ag                  :

  List of atomic basis orbitals and eigenvalues:
    n    l      energy [Ha]    energy [eV]    outer radius [A]
    1    0      -958.381320    -26078.8826       0.218529
    2    0      -137.772536     -3748.9815       0.595480
    3    0       -25.146438      -684.2694       1.384220
    4    0        -3.489893       -94.9648       3.462568
    5    0        -0.159328        -4.3355       5.443024
    2    1      -123.530088     -3361.4247       0.610219
    3    1       -20.497985      -557.7785       1.489569
    4    1        -2.148805       -58.4720       4.262412
    3    2       -13.181150      -358.6773       1.724930
    4    2        -0.271392        -7.3849       5.311556


  Species N                   :

  List of atomic basis orbitals and eigenvalues:
    n    l      energy [Ha]    energy [eV]    outer radius [A]
    1    0       -14.144983      -384.9046       1.637919
    2    0        -0.682735       -18.5782       5.168461
    2    1        -0.260361        -7.0848       5.361532


  Species H                   :

  List of atomic basis orbitals and eigenvalues:
    n    l      energy [Ha]    energy [eV]    outer radius [A]
    1    0        -0.238386        -6.4868       5.373006


  Species As                  :

  List of atomic basis orbitals and eigenvalues:
    n    l      energy [Ha]    energy [eV]    outer radius [A]
    1    0      -436.649520    -11881.8380       0.318942
    2    0       -54.755544     -1489.9742       0.912655
    3    0        -6.992637      -190.2793       2.486936
    4    0        -0.530794       -14.4436       5.306860
    2    1       -48.002396     -1306.2117       0.946748
    3    1        -4.910227      -133.6141       2.844895
    4    1        -0.189185        -5.1480       5.438212
    3    2        -1.492027       -40.6001       4.527073


  Species S                   :

  List of atomic basis orbitals and eigenvalues:
    n    l      energy [Ha]    energy [eV]    outer radius [A]
    1    0       -88.680731     -2413.1255       0.682391
    2    0        -7.781719      -211.7513       2.289014
    3    0        -0.633662       -17.2428       5.256262
    2    1        -5.751976      -156.5192       2.555240
    3    1        -0.257086        -6.9957       5.386362

  Assembling full basis from fixed parts.
  | Species Ag :   atomic orbital   1 s accepted.
  | Species Ag :   atomic orbital   2 s accepted.
  | Species Ag :   atomic orbital   3 s accepted.
  | Species Ag :   atomic orbital   4 s accepted.
  | Species Ag :   atomic orbital   5 s accepted.
  | Species Ag :    hydro orbital   3 s accepted.
  | Species Ag :   atomic orbital   2 p accepted.
  | Species Ag :   atomic orbital   3 p accepted.
  | Species Ag :   atomic orbital   4 p accepted.
  | Species Ag :    ionic orbital   5 p accepted.
  | Species Ag :   atomic orbital   3 d accepted.
  | Species Ag :    hydro orbital   4 d accepted.
  | Species Ag :   atomic orbital   4 d accepted.
  | Species Ag :    hydro orbital   4 f accepted.
  | Species N :   atomic orbital   1 s accepted.
  | Species N :    hydro orbital   3 s accepted.
  | Species N :   atomic orbital   2 s accepted.
  | Species N :   atomic orbital   2 p accepted.
[...]
  | writing   projected DOS (shifted by the chemical potential) for species H to file H_l_proj_dos_tetrahedron.dat.no_soc.
  | writing   projected DOS (raw data) for species H to file H_l_proj_dos_tetrahedron_raw.dat.no_soc.
  | writing   projected DOS (shifted by the chemical potential) for species As to file As_l_proj_dos_tetrahedron.dat.no_soc.
  | writing   projected DOS (raw data) for species As to file As_l_proj_dos_tetrahedron_raw.dat.no_soc.
  | writing   projected DOS (shifted by the chemical potential) for species S to file S_l_proj_dos_tetrahedron.dat.no_soc.
  | writing   projected DOS (raw data) for species S to file S_l_proj_dos_tetrahedron_raw.dat.no_soc.


  Performing spin-orbit-coupled Mulliken charge analysis on all atoms.
*** output_mulliken expected pure occ_numbers
*** sum(occ_numbers) =  1.0100000000000000E+05 instead of  2.0200000000000000E+02
  Full analysis (per state, per k-point, etc.) will NOT be written to separate file 'Mulliken.out.no_soc'.
  This file can be requested by stating 'output mulliken' explicitly.
  Summary of the per-atom charge analysis:
  |
  |  atom       electrons          charge             l=0             l=1             l=2             l=3
  |     1        7.376801       -0.376801        3.472389        3.872071        0.029367        0.002974
  |     2        0.706059        0.293941        0.646598        0.059462
  |     3        0.678048        0.321952        0.611255        0.066794
  |     4        0.722924        0.277076        0.658809        0.064116
  |     5        0.672661        0.327339        0.607145        0.065516
  |     6       32.218697        0.781303        7.432494       14.142665       10.534535        0.109003
  |     7       16.583169       -0.583169        5.874179       10.539001        0.144573        0.025416
  |     8       16.574437       -0.574437        5.869578       10.539727        0.140566        0.024567
  |     9       16.529023       -0.529023        5.861203       10.490305        0.150761        0.026754
  |    10       16.597346       -0.597346        5.877659       10.551118        0.143437        0.025131
  |    11       46.668653        0.331347        8.370307       18.408553       19.860425        0.029368
  |    12       46.672182        0.327818        8.369869       18.423590       19.847798        0.030925
  |
  | Total      202.000000        0.000000
 
  Calculating angular momentum projected density of states ...
  | Chemical potential is  -5.805972 eV.
  | writing   projected DOS (shifted by the chemical potential) for species Ag to file Ag_l_proj_dos_tetrahedron.dat.
  | writing   projected DOS (raw data) for species Ag to file Ag_l_proj_dos_tetrahedron_raw.dat.
  | writing   projected DOS (shifted by the chemical potential) for species N to file N_l_proj_dos_tetrahedron.dat.
  | writing   projected DOS (raw data) for species N to file N_l_proj_dos_tetrahedron_raw.dat.
  | writing   projected DOS (shifted by the chemical potential) for species H to file H_l_proj_dos_tetrahedron.dat.
  | writing   projected DOS (raw data) for species H to file H_l_proj_dos_tetrahedron_raw.dat.
  | writing   projected DOS (shifted by the chemical potential) for species As to file As_l_proj_dos_tetrahedron.dat.
  | writing   projected DOS (raw data) for species As to file As_l_proj_dos_tetrahedron_raw.dat.
  | writing   projected DOS (shifted by the chemical potential) for species S to file S_l_proj_dos_tetrahedron.dat.
  | writing   projected DOS (raw data) for species S to file S_l_proj_dos_tetrahedron_raw.dat.

  Mulliken analysis                                       :  max(cpu_time)    wall_clock(cpu1)
  | Time for Mulliken analysis (scalar relativistic)      :         25.707              25.751
  | Time for Mulliken analysis (spin-orbit coupled)       :         91.850              91.896
  | Total time for Mulliken analysis                      :        117.556             117.647
------------------------------------------------------------

  -------------------------------------------------------------------
  Writing the requested band structure output (LAPACK version):
  -------------------------------------------------------------------

  Integrating Hamiltonian matrix: batch-based integration.
  Time summed over all CPUs for integration: real work      114.362 s, elapsed      126.001 s
  Integrating SOC matrix: batch-based integration p2 version.
  Allocating        0.279 MB for dist_tab
  Allocating        0.279 MB for dist_tab_sq
  Allocating        0.836 MB for dir_tab
  Allocating        0.055 MB for i_basis_fns
  Allocating        1.535 MB for i_basis_fns_inv
  Allocating        0.055 MB for i_atom_fns
  Allocating        2.137 MB for gradient_basis_wave
  Allocating        0.007 MB for ylm_tab
  Allocating        0.002 MB for radial_wave
  Allocating        0.002 MB for radial_wave_deriv
  Allocating        0.017 MB for i_basis
  Allocating        4.858 MB for soc_shell
  Allocating        0.017 MB for cartesians
  Allocating        0.021 MB for sum_gradient
  Allocating        0.042 MB for sum_hessian
  Allocating        0.001 MB for potential_shell

  Treating all   21 k-points in band plot segment #   1:


  Scalar-relativistic "band gap" along reciprocal space direction number:    1
  | Lowest unoccupied state:      -4.44455855 eV
  | Highest occupied state :      -6.51763795 eV
  | Energy difference      :       2.07307939 eV


Spin-orbit-coupled "band gap" along reciprocal space direction number:    1
  | Lowest unoccupied state:      -4.44439661 eV
  | Highest occupied state :      -6.49770141 eV
  | Energy difference      :       2.05330480 eV


  Treating all   21 k-points in band plot segment #   2:


  Scalar-relativistic "band gap" along reciprocal space direction number:    2
  | Lowest unoccupied state:      -3.99521162 eV
  | Highest occupied state :      -6.20246949 eV
  | Energy difference      :       2.20725787 eV


Spin-orbit-coupled "band gap" along reciprocal space direction number:    2
  | Lowest unoccupied state:      -3.99577868 eV
  | Highest occupied state :      -6.19126577 eV
  | Energy difference      :       2.19548709 eV


  Treating all   21 k-points in band plot segment #   3:


  Scalar-relativistic "band gap" along reciprocal space direction number:    3
  | Lowest unoccupied state:      -4.05967146 eV
  | Highest occupied state :      -6.03755268 eV
  | Energy difference      :       1.97788122 eV


Spin-orbit-coupled "band gap" along reciprocal space direction number:    3
  | Lowest unoccupied state:      -4.06193936 eV
  | Highest occupied state :      -6.02767391 eV
  | Energy difference      :       1.96573455 eV


  Treating all   21 k-points in band plot segment #   4:


  Scalar-relativistic "band gap" along reciprocal space direction number:    4
  | Lowest unoccupied state:      -4.44455855 eV
  | Highest occupied state :      -6.03755268 eV
  | Energy difference      :       1.59299413 eV


Spin-orbit-coupled "band gap" along reciprocal space direction number:    4
  | Lowest unoccupied state:      -4.44439661 eV
  | Highest occupied state :      -6.02767391 eV
  | Energy difference      :       1.58327729 eV


  Treating all   21 k-points in band plot segment #   5:


  Scalar-relativistic "band gap" along reciprocal space direction number:    5
  | Lowest unoccupied state:      -4.44455855 eV
  | Highest occupied state :      -5.84729191 eV
  | Energy difference      :       1.40273335 eV


Spin-orbit-coupled "band gap" along reciprocal space direction number:    5
  | Lowest unoccupied state:      -4.44439661 eV
  | Highest occupied state :      -5.84126386 eV
  | Energy difference      :       1.39686724 eV


  Treating all   21 k-points in band plot segment #   6:


  Scalar-relativistic "band gap" along reciprocal space direction number:    6
  | Lowest unoccupied state:      -4.16798635 eV
  | Highest occupied state :      -5.84729191 eV
  | Energy difference      :       1.67930555 eV


Spin-orbit-coupled "band gap" along reciprocal space direction number:    6
  | Lowest unoccupied state:      -4.16563324 eV
  | Highest occupied state :      -5.84126386 eV
  | Energy difference      :       1.67563062 eV


  Treating all   21 k-points in band plot segment #   7:


  Scalar-relativistic "band gap" along reciprocal space direction number:    7
  | Lowest unoccupied state:      -4.05952909 eV
  | Highest occupied state :      -6.03755268 eV
  | Energy difference      :       1.97802359 eV


Spin-orbit-coupled "band gap" along reciprocal space direction number:    7
  | Lowest unoccupied state:      -4.06187332 eV
  | Highest occupied state :      -6.02767391 eV
  | Energy difference      :       1.96580059 eV


  Treating all   21 k-points in band plot segment #   8:


  Scalar-relativistic "band gap" along reciprocal space direction number:    8
  | Lowest unoccupied state:      -4.04577577 eV
  | Highest occupied state :      -6.27195564 eV
  | Energy difference      :       2.22617988 eV


Spin-orbit-coupled "band gap" along reciprocal space direction number:    8
  | Lowest unoccupied state:      -4.04771740 eV
  | Highest occupied state :      -6.26398550 eV
  | Energy difference      :       2.21626810 eV


  Treating all   21 k-points in band plot segment #   9:


  Scalar-relativistic "band gap" along reciprocal space direction number:    9
  | Lowest unoccupied state:      -4.03877604 eV
  | Highest occupied state :      -6.17546878 eV
  | Energy difference      :       2.13669273 eV


Spin-orbit-coupled "band gap" along reciprocal space direction number:    9
  | Lowest unoccupied state:      -4.04001257 eV
  | Highest occupied state :      -6.16516158 eV
  | Energy difference      :       2.12514901 eV


  Treating all   21 k-points in band plot segment #  10:


  Scalar-relativistic "band gap" along reciprocal space direction number:   10
  | Lowest unoccupied state:      -4.16798635 eV
  | Highest occupied state :      -5.84729191 eV
  | Energy difference      :       1.67930555 eV


Spin-orbit-coupled "band gap" along reciprocal space direction number:   10
  | Lowest unoccupied state:      -4.16560739 eV
  | Highest occupied state :      -5.84126386 eV
  | Energy difference      :       1.67565646 eV


  Treating all   21 k-points in band plot segment #  11:


  Scalar-relativistic "band gap" along reciprocal space direction number:   11
  | Lowest unoccupied state:      -4.03877604 eV
  | Highest occupied state :      -6.62551901 eV
  | Energy difference      :       2.58674297 eV


Spin-orbit-coupled "band gap" along reciprocal space direction number:   11
  | Lowest unoccupied state:      -4.04001257 eV
  | Highest occupied state :      -6.61795715 eV
  | Energy difference      :       2.57794458 eV

  Scalar-relativistic "band gap" of total set of bands:
  | Lowest unoccupied state:      -4.44455855 eV
  | Highest occupied state :      -5.84729191 eV
  | Energy difference      :       1.40273335 eV

  Spin-orbit-coupled "band gap" of total set of bands:
  | Lowest unoccupied state:      -4.44439661 eV
  | Highest occupied state :      -5.84126386 eV
  | Energy difference      :       1.39686724 eV


  Band Structure                                          :  max(cpu_time) wall_clock(cpu1)
  | Total Time                                            :        359.495          360.409
------------------------------------------------------------

------------------------------------------------------------------------------
  Final output of selected total energy values:

  The following output summarizes some interesting total energy values
  at the end of a run (AFTER all relaxation, molecular dynamics, etc.).

  | Total energy of the DFT / Hartree-Fock s.c.f. calculation      :        -399752.157349946 eV
  | Final zero-broadening corrected energy (caution - metals only) :        -399752.157349946 eV
  | Total energy after non-SC SOC correction (DO NOT USE)          :        -399752.807176527 eV
  | For reference only, the value of 1 Hartree used in FHI-aims is :             27.211384500 eV
  | For reference only, the overall average (free atom contribution
  | + realspace contribution) of the electrostatic potential after
  | s.c.f. convergence is                                          :            -12.454467994 eV

  Before relying on these values, please be sure to understand exactly which
  total energy value is referred to by a given number. Different objects may
  all carry the same name 'total energy'. Definitions:

  Total energy of the DFT / Hartree-Fock s.c.f. calculation:
  | Note that this energy does not include ANY quantities calculated after the
  | s.c.f. cycle, in particular not ANY RPA, MP2, etc. many-body perturbation terms.

  Final zero-broadening corrected energy:
  | For metallic systems only, a broadening of the occupation numbers at the Fermi
  | level can be extrapolated back to zero broadening by an electron-gas inspired
  | formula. For all systems that are not real metals, this value can be
  | meaningless and should be avoided.

------------------------------------------------------------------------------
  Methods described in the following list of references were used in this FHI-aims run.
  If you publish the results, please make sure to cite these reference if they apply.
  FHI-aims is an academic code, and for our developers (often, Ph.D. students
  and postdocs), scientific credit in the community is essential.
  Thank you for helping us!

  For any use of FHI-aims, please cite:

    Volker Blum, Ralf Gehrke, Felix Hanke, Paula Havu, Ville Havu,
    Xinguo Ren, Karsten Reuter, and Matthias Scheffler
    'Ab initio molecular simulations with numeric atom-centered orbitals'
    Computer Physics Communications 180, 2175-2196 (2009)
    http://doi.org/10.1016/j.cpc.2009.06.022


  For Hartree-Fock, hybrid functionals, or many-body perturbation theory used in your run, please cite:

    Xinguo Ren, Patrick Rinke, Volker Blum, Juergen Wieferink, Alex Tkatchenko,
    Andrea Sanfilippo, Karsten Reuter, and Matthias Scheffler,
    'Resolution-of-identity approach to Hartree-Fock, hybrid density functionals,
    RPA, MP2, and GW with numeric atom-centered orbital basis functions'
    New Journal of Physics 14, 053020 (2012).
    http://doi.org/10.1088/1367-2630/14/5/053020


  The provided symmetry information was generated with SPGlib:

    Atsushi Togo, Yusuke Seto, Dimitar Pashov
    SPGlib 1.7.3 obtained from http://spglib.sourceforge.net
    Copyright (C) 2008 Atsushi Togo


  For second-variational spin-orbit coupling used in your run, please cite:

    William P. Huhn and Volker Blum,
    'One-hundred-three compound band-structure benchmark of post-self-consistent'
    'spin-orbit coupling treatments in density functional theory'
    Phys. Rev. Materials 1, 033803 (2017).


  The ELSI infrastructure was used in your run to solve the Kohn-Sham electronic structure.
  Please check out http://elsi-interchange.org to learn more.
  If scalability is important for your project, please acknowledge ELSI by citing:

    V. W-z. Yu, F. Corsetti, A. Garcia, W. P. Huhn, M. Jacquelin, W. Jia,
    B. Lange, L. Lin, J. Lu, W. Mi, A. Seifitokaldani, A. Vazquez-Mayagoitia,
    C. Yang, H. Yang, and V. Blum
    'ELSI: A unified software interface for Kohn-Sham electronic structure solvers'
    Computer Physics Communications 222, 267-285 (2018).
    http://doi.org/10.1016/j.cpc.2017.09.007


  For the real-space grid partitioning and parallelization used in this calculation, please cite:

    Ville Havu, Volker Blum, Paula Havu, and Matthias Scheffler,
    'Efficient O(N) integration for all-electron electronic structure calculation'
    'using numerically tabulated basis functions'
    Journal of Computational Physics 228, 8367-8379 (2009).
    http://doi.org/10.1016/j.jcp.2009.08.008


  The high-level electronic structure method used in your calculation
  employed our efficient localized resolution of identity for the Coulomb operator.
  Some calculations, especially large-scale hybrid density functional theory,
  are only possible thanks to this development. For this feature, please cite:

    Arvid Ihrig, Juergen Wieferink, Igor Ying Zhang, Matti Ropo, Xinguo Ren,
    Patrick Rinke, Matthias Scheffler, and Volker Blum,
    'Accurate localized resolution of identity approach for linear-scaling
    hybrid density functionals and for many-body perturbation theory'
    New Journal of Physics 117, 093020 (2015).
    http://doi.org/10.1088/1367-2630/17/9/093020

  Of course, there are many other important community references, e.g., those cited in the
  above references. Our list is limited to references that describe implementations in the
  FHI-aims code. The reason is purely practical (length of this list) - please credit others as well.

------------------------------------------------------------
          Leaving FHI-aims.
          Date     :  20220608, Time     :  071124.454

          Computational steps:
          | Number of self-consistency cycles          :           18
          | Number of SCF (re)initializations          :            1

          Detailed time accounting                     :  max(cpu_time)    wall_clock(cpu1)
          | Total time                                  :     1246.651 s        1247.292 s
          | Preparation time                            :        2.392 s           2.424 s
          | Boundary condition initalization            :        0.579 s           0.579 s
          | Grid partitioning                           :        0.370 s           0.370 s
          | Preloading free-atom quantities on grid     :        0.977 s           0.977 s
          | Free-atom superposition energy              :        0.077 s           0.077 s
          | Total time for integrations                 :       15.032 s          15.034 s
          | Product basis setup: Total time             :       95.429 s          95.438 s
          | Total time evaluating exchange matrix       :      558.049 s         558.049 s
          | Total time for solution of K.-S. equations  :       33.857 s          33.870 s
          | Total time for density update               :       28.504 s          28.509 s
          | Total time for mixing                       :        0.158 s           0.134 s
          | Total time for Hartree multipole update     :        0.364 s           0.367 s
          | Total time for Hartree multipole sum        :       10.682 s          10.684 s
          | Total time for total energy evaluation      :        0.599 s           0.578 s
          | Total time for scaled ZORA corrections      :        0.000 s           0.000 s
          | Total time for vdW correction               :        1.993 s           1.990 s
          | Total time for perturbative SOC             :       18.876 s          18.876 s
          | Total time for band structures, DOS         :      360.099 s         361.029 s
          | Total time for Mulliken analysis            :      117.556 s         117.647 s

          Partial memory accounting:
          | Residual value for overall tracked memory usage across tasks:     0.000000 MB (should be 0.000000 MB)
          | Peak values for overall tracked memory usage:
          |   Minimum:      145.351 MB (on task  33 after allocating tmpx2)
          |   Maximum:      327.115 MB (on task   5 after allocating tmpx2)
          |   Average:      233.700 MB
          | Largest tracked array allocation:
          |   Minimum:       47.424 MB (dm_cols_mem on task  84)
          |   Maximum:      279.070 MB (aux_mat on task 136)
          |   Average:      164.435 MB
          Note:  These values currently only include a subset of arrays which are explicitly tracked.
          The "true" memory usage will be greater.

          Have a nice day.
------------------------------------------------------------
