<?xml version="1.0" encoding="ISO-8859-1"?>
<modeling>
 <generator>
  <i name="program" type="string">vasp</i>
  <i name="version" type="string">4.6.35 </i>
  <i name="subversion" type="string">3Apr08 complex  parallel</i>
  <i name="platform" type="string">LinuxIFC</i>
  <i name="date" type="string">2013 04 11</i>
  <i name="time" type="string">18:49:33</i>
 </generator>
 <incar>
  <i type="string" name="SYSTEM">Si.A4</i>
  <i type="string" name="PREC">high</i>
  <i type="string" name="ALGO">Normal</i>
  <i type="int" name="ISPIN">     1</i>
  <i type="int" name="ICHARG">    11</i>
  <i type="int" name="NELM">   120</i>
  <i type="int" name="NELMIN">     2</i>
  <i name="EDIFF">      0.00000100</i>
  <i type="int" name="IBRION">     2</i>
  <i type="int" name="NSW">     0</i>
  <i type="int" name="ISIF">     2</i>
  <i type="int" name="ISYM">     2</i>
  <i name="ENMAX">    343.60900000</i>
  <i type="int" name="NBANDS">    37</i>
  <i type="logical" name="LREAL"> F  </i>
  <i type="logical" name="LPLANE"> T  </i>
  <i type="int" name="ISMEAR">     0</i>
  <i name="SIGMA">      0.05000000</i>
  <i name="PSTRESS">      0.00000000</i>
  <i type="int" name="NSIM">     4</i>
  <i type="logical" name="LWAVE"> F  </i>
  <i type="logical" name="LCHARG"> F  </i>
  <i type="logical" name="LSCALU"> F  </i>
 </incar>
 <kpoints>
  <generation param="listgenerated">
   <i name="divisions" type="int">     128</i>
   <v>       0.00000000       0.00000000       0.00000000 </v>
   <v>       0.50000000       0.00000000       0.50000000 </v>
   <v>       0.50000000       0.25000000       0.75000000 </v>
   <v>       0.37500000       0.37500000       0.75000000 </v>
   <v>       0.00000000       0.00000000       0.00000000 </v>
   <v>       0.50000000       0.50000000       0.50000000 </v>
   <v>       0.62500000       0.25000000       0.62500000 </v>
   <v>       0.50000000       0.25000000       0.75000000 </v>
   <v>       0.50000000       0.50000000       0.50000000 </v>
   <v>       0.62500000       0.25000000       0.62500000 </v>
   <v>       0.50000000       0.00000000       0.50000000 </v>
  </generation>
  <varray name="kpointlist" >
   <v>       0.00000000       0.00000000       0.00000000 </v>
   <v>       0.00393701       0.00000000       0.00393701 </v>
   <v>       0.00787402       0.00000000       0.00787402 </v>
   <v>       0.01181102       0.00000000       0.01181102 </v>
   <v>       0.01574803       0.00000000       0.01574803 </v>
   <v>       0.01968504       0.00000000       0.01968504 </v>
   <v>       0.02362205       0.00000000       0.02362205 </v>
   <v>       0.02755906       0.00000000       0.02755906 </v>
   <v>       0.03149606       0.00000000       0.03149606 </v>
   <v>       0.03543307       0.00000000       0.03543307 </v>
   <v>       0.03937008       0.00000000       0.03937008 </v>
   <v>       0.04330709       0.00000000       0.04330709 </v>
   <v>       0.04724409       0.00000000       0.04724409 </v>
   <v>       0.05118110       0.00000000       0.05118110 </v>
   <v>       0.05511811       0.00000000       0.05511811 </v>
   <v>       0.05905512       0.00000000       0.05905512 </v>
   <v>       0.06299213       0.00000000       0.06299213 </v>
   <v>       0.06692913       0.00000000       0.06692913 </v>
   <v>       0.07086614       0.00000000       0.07086614 </v>
   <v>       0.07480315       0.00000000       0.07480315 </v>
   <v>       0.07874016       0.00000000       0.07874016 </v>
   <v>       0.08267717       0.00000000       0.08267717 </v>
   <v>       0.08661417       0.00000000       0.08661417 </v>
   <v>       0.09055118       0.00000000       0.09055118 </v>
   <v>       0.09448819       0.00000000       0.09448819 </v>
   <v>       0.09842520       0.00000000       0.09842520 </v>
   <v>       0.10236220       0.00000000       0.10236220 </v>
   <v>       0.10629921       0.00000000       0.10629921 </v>
   <v>       0.11023622       0.00000000       0.11023622 </v>
   <v>       0.11417323       0.00000000       0.11417323 </v>
   <v>       0.11811024       0.00000000       0.11811024 </v>
   <v>       0.12204724       0.00000000       0.12204724 </v>
   <v>       0.12598425       0.00000000       0.12598425 </v>
   <v>       0.12992126       0.00000000       0.12992126 </v>
   <v>       0.13385827       0.00000000       0.13385827 </v>
   <v>       0.13779528       0.00000000       0.13779528 </v>
   <v>       0.14173228       0.00000000       0.14173228 </v>
   <v>       0.14566929       0.00000000       0.14566929 </v>
   <v>       0.14960630       0.00000000       0.14960630 </v>
   <v>       0.15354331       0.00000000       0.15354331 </v>
   <v>       0.15748031       0.00000000       0.15748031 </v>
   <v>       0.16141732       0.00000000       0.16141732 </v>
   <v>       0.16535433       0.00000000       0.16535433 </v>
   <v>       0.16929134       0.00000000       0.16929134 </v>
   <v>       0.17322835       0.00000000       0.17322835 </v>
   <v>       0.17716535       0.00000000       0.17716535 </v>
   <v>       0.18110236       0.00000000       0.18110236 </v>
   <v>       0.18503937       0.00000000       0.18503937 </v>
   <v>       0.18897638       0.00000000       0.18897638 </v>
   <v>       0.19291339       0.00000000       0.19291339 </v>
   <v>       0.19685039       0.00000000       0.19685039 </v>
   <v>       0.20078740       0.00000000       0.20078740 </v>
   <v>       0.20472441       0.00000000       0.20472441 </v>
   <v>       0.20866142       0.00000000       0.20866142 </v>
   <v>       0.21259843       0.00000000       0.21259843 </v>
   <v>       0.21653543       0.00000000       0.21653543 </v>
   <v>       0.22047244       0.00000000       0.22047244 </v>
   <v>       0.22440945       0.00000000       0.22440945 </v>
   <v>       0.22834646       0.00000000       0.22834646 </v>
   <v>       0.23228346       0.00000000       0.23228346 </v>
   <v>       0.23622047       0.00000000       0.23622047 </v>
   <v>       0.24015748       0.00000000       0.24015748 </v>
   <v>       0.24409449       0.00000000       0.24409449 </v>
   <v>       0.24803150       0.00000000       0.24803150 </v>
   <v>       0.25196850       0.00000000       0.25196850 </v>
   <v>       0.25590551       0.00000000       0.25590551 </v>
   <v>       0.25984252       0.00000000       0.25984252 </v>
   <v>       0.26377953       0.00000000       0.26377953 </v>
   <v>       0.26771654       0.00000000       0.26771654 </v>
   <v>       0.27165354       0.00000000       0.27165354 </v>
   <v>       0.27559055       0.00000000       0.27559055 </v>
   <v>       0.27952756       0.00000000       0.27952756 </v>
   <v>       0.28346457       0.00000000       0.28346457 </v>
   <v>       0.28740157       0.00000000       0.28740157 </v>
   <v>       0.29133858       0.00000000       0.29133858 </v>
   <v>       0.29527559       0.00000000       0.29527559 </v>
   <v>       0.29921260       0.00000000       0.29921260 </v>
   <v>       0.30314961       0.00000000       0.30314961 </v>
   <v>       0.30708661       0.00000000       0.30708661 </v>
   <v>       0.31102362       0.00000000       0.31102362 </v>
   <v>       0.31496063       0.00000000       0.31496063 </v>
   <v>       0.31889764       0.00000000       0.31889764 </v>
   <v>       0.32283465       0.00000000       0.32283465 </v>
   <v>       0.32677165       0.00000000       0.32677165 </v>
   <v>       0.33070866       0.00000000       0.33070866 </v>
   <v>       0.33464567       0.00000000       0.33464567 </v>
   <v>       0.33858268       0.00000000       0.33858268 </v>
   <v>       0.34251969       0.00000000       0.34251969 </v>
   <v>       0.34645669       0.00000000       0.34645669 </v>
   <v>       0.35039370       0.00000000       0.35039370 </v>
   <v>       0.35433071       0.00000000       0.35433071 </v>
   <v>       0.35826772       0.00000000       0.35826772 </v>
   <v>       0.36220472       0.00000000       0.36220472 </v>
   <v>       0.36614173       0.00000000       0.36614173 </v>
   <v>       0.37007874       0.00000000       0.37007874 </v>
   <v>       0.37401575       0.00000000       0.37401575 </v>
   <v>       0.37795276       0.00000000       0.37795276 </v>
   <v>       0.38188976       0.00000000       0.38188976 </v>
   <v>       0.38582677       0.00000000       0.38582677 </v>
   <v>       0.38976378       0.00000000       0.38976378 </v>
   <v>       0.39370079       0.00000000       0.39370079 </v>
   <v>       0.39763780       0.00000000       0.39763780 </v>
   <v>       0.40157480       0.00000000       0.40157480 </v>
   <v>       0.40551181       0.00000000       0.40551181 </v>
   <v>       0.40944882       0.00000000       0.40944882 </v>
   <v>       0.41338583       0.00000000       0.41338583 </v>
   <v>       0.41732283       0.00000000       0.41732283 </v>
   <v>       0.42125984       0.00000000       0.42125984 </v>
   <v>       0.42519685       0.00000000       0.42519685 </v>
   <v>       0.42913386       0.00000000       0.42913386 </v>
   <v>       0.43307087       0.00000000       0.43307087 </v>
   <v>       0.43700787       0.00000000       0.43700787 </v>
   <v>       0.44094488       0.00000000       0.44094488 </v>
   <v>       0.44488189       0.00000000       0.44488189 </v>
   <v>       0.44881890       0.00000000       0.44881890 </v>
   <v>       0.45275591       0.00000000       0.45275591 </v>
   <v>       0.45669291       0.00000000       0.45669291 </v>
   <v>       0.46062992       0.00000000       0.46062992 </v>
   <v>       0.46456693       0.00000000       0.46456693 </v>
   <v>       0.46850394       0.00000000       0.46850394 </v>
   <v>       0.47244094       0.00000000       0.47244094 </v>
   <v>       0.47637795       0.00000000       0.47637795 </v>
   <v>       0.48031496       0.00000000       0.48031496 </v>
   <v>       0.48425197       0.00000000       0.48425197 </v>
   <v>       0.48818898       0.00000000       0.48818898 </v>
   <v>       0.49212598       0.00000000       0.49212598 </v>
   <v>       0.49606299       0.00000000       0.49606299 </v>
   <v>       0.50000000       0.00000000       0.50000000 </v>
   <v>       0.50000000       0.00000000       0.50000000 </v>
   <v>       0.50000000       0.00196850       0.50196850 </v>
   <v>       0.50000000       0.00393701       0.50393701 </v>
   <v>       0.50000000       0.00590551       0.50590551 </v>
   <v>       0.50000000       0.00787402       0.50787402 </v>
   <v>       0.50000000       0.00984252       0.50984252 </v>
   <v>       0.50000000       0.01181102       0.51181102 </v>
   <v>       0.50000000       0.01377953       0.51377953 </v>
   <v>       0.50000000       0.01574803       0.51574803 </v>
   <v>       0.50000000       0.01771654       0.51771654 </v>
   <v>       0.50000000       0.01968504       0.51968504 </v>
   <v>       0.50000000       0.02165354       0.52165354 </v>
   <v>       0.50000000       0.02362205       0.52362205 </v>
   <v>       0.50000000       0.02559055       0.52559055 </v>
   <v>       0.50000000       0.02755906       0.52755906 </v>
   <v>       0.50000000       0.02952756       0.52952756 </v>
   <v>       0.50000000       0.03149606       0.53149606 </v>
   <v>       0.50000000       0.03346457       0.53346457 </v>
   <v>       0.50000000       0.03543307       0.53543307 </v>
   <v>       0.50000000       0.03740157       0.53740157 </v>
   <v>       0.50000000       0.03937008       0.53937008 </v>
   <v>       0.50000000       0.04133858       0.54133858 </v>
   <v>       0.50000000       0.04330709       0.54330709 </v>
   <v>       0.50000000       0.04527559       0.54527559 </v>
   <v>       0.50000000       0.04724409       0.54724409 </v>
   <v>       0.50000000       0.04921260       0.54921260 </v>
   <v>       0.50000000       0.05118110       0.55118110 </v>
   <v>       0.50000000       0.05314961       0.55314961 </v>
   <v>       0.50000000       0.05511811       0.55511811 </v>
   <v>       0.50000000       0.05708661       0.55708661 </v>
   <v>       0.50000000       0.05905512       0.55905512 </v>
   <v>       0.50000000       0.06102362       0.56102362 </v>
   <v>       0.50000000       0.06299213       0.56299213 </v>
   <v>       0.50000000       0.06496063       0.56496063 </v>
   <v>       0.50000000       0.06692913       0.56692913 </v>
   <v>       0.50000000       0.06889764       0.56889764 </v>
   <v>       0.50000000       0.07086614       0.57086614 </v>
   <v>       0.50000000       0.07283465       0.57283465 </v>
   <v>       0.50000000       0.07480315       0.57480315 </v>
   <v>       0.50000000       0.07677165       0.57677165 </v>
   <v>       0.50000000       0.07874016       0.57874016 </v>
   <v>       0.50000000       0.08070866       0.58070866 </v>
   <v>       0.50000000       0.08267717       0.58267717 </v>
   <v>       0.50000000       0.08464567       0.58464567 </v>
   <v>       0.50000000       0.08661417       0.58661417 </v>
   <v>       0.50000000       0.08858268       0.58858268 </v>
   <v>       0.50000000       0.09055118       0.59055118 </v>
   <v>       0.50000000       0.09251969       0.59251969 </v>
   <v>       0.50000000       0.09448819       0.59448819 </v>
   <v>       0.50000000       0.09645669       0.59645669 </v>
   <v>       0.50000000       0.09842520       0.59842520 </v>
   <v>       0.50000000       0.10039370       0.60039370 </v>
   <v>       0.50000000       0.10236220       0.60236220 </v>
   <v>       0.50000000       0.10433071       0.60433071 </v>
   <v>       0.50000000       0.10629921       0.60629921 </v>
   <v>       0.50000000       0.10826772       0.60826772 </v>
   <v>       0.50000000       0.11023622       0.61023622 </v>
   <v>       0.50000000       0.11220472       0.61220472 </v>
   <v>       0.50000000       0.11417323       0.61417323 </v>
   <v>       0.50000000       0.11614173       0.61614173 </v>
   <v>       0.50000000       0.11811024       0.61811024 </v>
   <v>       0.50000000       0.12007874       0.62007874 </v>
   <v>       0.50000000       0.12204724       0.62204724 </v>
   <v>       0.50000000       0.12401575       0.62401575 </v>
   <v>       0.50000000       0.12598425       0.62598425 </v>
   <v>       0.50000000       0.12795276       0.62795276 </v>
   <v>       0.50000000       0.12992126       0.62992126 </v>
   <v>       0.50000000       0.13188976       0.63188976 </v>
   <v>       0.50000000       0.13385827       0.63385827 </v>
   <v>       0.50000000       0.13582677       0.63582677 </v>
   <v>       0.50000000       0.13779528       0.63779528 </v>
   <v>       0.50000000       0.13976378       0.63976378 </v>
   <v>       0.50000000       0.14173228       0.64173228 </v>
   <v>       0.50000000       0.14370079       0.64370079 </v>
   <v>       0.50000000       0.14566929       0.64566929 </v>
   <v>       0.50000000       0.14763780       0.64763780 </v>
   <v>       0.50000000       0.14960630       0.64960630 </v>
   <v>       0.50000000       0.15157480       0.65157480 </v>
   <v>       0.50000000       0.15354331       0.65354331 </v>
   <v>       0.50000000       0.15551181       0.65551181 </v>
   <v>       0.50000000       0.15748031       0.65748031 </v>
   <v>       0.50000000       0.15944882       0.65944882 </v>
   <v>       0.50000000       0.16141732       0.66141732 </v>
   <v>       0.50000000       0.16338583       0.66338583 </v>
   <v>       0.50000000       0.16535433       0.66535433 </v>
   <v>       0.50000000       0.16732283       0.66732283 </v>
   <v>       0.50000000       0.16929134       0.66929134 </v>
   <v>       0.50000000       0.17125984       0.67125984 </v>
   <v>       0.50000000       0.17322835       0.67322835 </v>
   <v>       0.50000000       0.17519685       0.67519685 </v>
   <v>       0.50000000       0.17716535       0.67716535 </v>
   <v>       0.50000000       0.17913386       0.67913386 </v>
   <v>       0.50000000       0.18110236       0.68110236 </v>
   <v>       0.50000000       0.18307087       0.68307087 </v>
   <v>       0.50000000       0.18503937       0.68503937 </v>
   <v>       0.50000000       0.18700787       0.68700787 </v>
   <v>       0.50000000       0.18897638       0.68897638 </v>
   <v>       0.50000000       0.19094488       0.69094488 </v>
   <v>       0.50000000       0.19291339       0.69291339 </v>
   <v>       0.50000000       0.19488189       0.69488189 </v>
   <v>       0.50000000       0.19685039       0.69685039 </v>
   <v>       0.50000000       0.19881890       0.69881890 </v>
   <v>       0.50000000       0.20078740       0.70078740 </v>
   <v>       0.50000000       0.20275591       0.70275591 </v>
   <v>       0.50000000       0.20472441       0.70472441 </v>
   <v>       0.50000000       0.20669291       0.70669291 </v>
   <v>       0.50000000       0.20866142       0.70866142 </v>
   <v>       0.50000000       0.21062992       0.71062992 </v>
   <v>       0.50000000       0.21259843       0.71259843 </v>
   <v>       0.50000000       0.21456693       0.71456693 </v>
   <v>       0.50000000       0.21653543       0.71653543 </v>
   <v>       0.50000000       0.21850394       0.71850394 </v>
   <v>       0.50000000       0.22047244       0.72047244 </v>
   <v>       0.50000000       0.22244094       0.72244094 </v>
   <v>       0.50000000       0.22440945       0.72440945 </v>
   <v>       0.50000000       0.22637795       0.72637795 </v>
   <v>       0.50000000       0.22834646       0.72834646 </v>
   <v>       0.50000000       0.23031496       0.73031496 </v>
   <v>       0.50000000       0.23228346       0.73228346 </v>
   <v>       0.50000000       0.23425197       0.73425197 </v>
   <v>       0.50000000       0.23622047       0.73622047 </v>
   <v>       0.50000000       0.23818898       0.73818898 </v>
   <v>       0.50000000       0.24015748       0.74015748 </v>
   <v>       0.50000000       0.24212598       0.74212598 </v>
   <v>       0.50000000       0.24409449       0.74409449 </v>
   <v>       0.50000000       0.24606299       0.74606299 </v>
   <v>       0.50000000       0.24803150       0.74803150 </v>
   <v>       0.50000000       0.25000000       0.75000000 </v>
   <v>       0.50000000       0.25000000       0.75000000 </v>
   <v>       0.49901575       0.25098425       0.75000000 </v>
   <v>       0.49803150       0.25196850       0.75000000 </v>
   <v>       0.49704724       0.25295276       0.75000000 </v>
   <v>       0.49606299       0.25393701       0.75000000 </v>
   <v>       0.49507874       0.25492126       0.75000000 </v>
   <v>       0.49409449       0.25590551       0.75000000 </v>
   <v>       0.49311024       0.25688976       0.75000000 </v>
   <v>       0.49212598       0.25787402       0.75000000 </v>
   <v>       0.49114173       0.25885827       0.75000000 </v>
   <v>       0.49015748       0.25984252       0.75000000 </v>
   <v>       0.48917323       0.26082677       0.75000000 </v>
   <v>       0.48818898       0.26181102       0.75000000 </v>
   <v>       0.48720472       0.26279528       0.75000000 </v>
   <v>       0.48622047       0.26377953       0.75000000 </v>
   <v>       0.48523622       0.26476378       0.75000000 </v>
   <v>       0.48425197       0.26574803       0.75000000 </v>
   <v>       0.48326772       0.26673228       0.75000000 </v>
   <v>       0.48228346       0.26771654       0.75000000 </v>
   <v>       0.48129921       0.26870079       0.75000000 </v>
   <v>       0.48031496       0.26968504       0.75000000 </v>
   <v>       0.47933071       0.27066929       0.75000000 </v>
   <v>       0.47834646       0.27165354       0.75000000 </v>
   <v>       0.47736220       0.27263780       0.75000000 </v>
   <v>       0.47637795       0.27362205       0.75000000 </v>
   <v>       0.47539370       0.27460630       0.75000000 </v>
   <v>       0.47440945       0.27559055       0.75000000 </v>
   <v>       0.47342520       0.27657480       0.75000000 </v>
   <v>       0.47244094       0.27755906       0.75000000 </v>
   <v>       0.47145669       0.27854331       0.75000000 </v>
   <v>       0.47047244       0.27952756       0.75000000 </v>
   <v>       0.46948819       0.28051181       0.75000000 </v>
   <v>       0.46850394       0.28149606       0.75000000 </v>
   <v>       0.46751969       0.28248031       0.75000000 </v>
   <v>       0.46653543       0.28346457       0.75000000 </v>
   <v>       0.46555118       0.28444882       0.75000000 </v>
   <v>       0.46456693       0.28543307       0.75000000 </v>
   <v>       0.46358268       0.28641732       0.75000000 </v>
   <v>       0.46259843       0.28740157       0.75000000 </v>
   <v>       0.46161417       0.28838583       0.75000000 </v>
   <v>       0.46062992       0.28937008       0.75000000 </v>
   <v>       0.45964567       0.29035433       0.75000000 </v>
   <v>       0.45866142       0.29133858       0.75000000 </v>
   <v>       0.45767717       0.29232283       0.75000000 </v>
   <v>       0.45669291       0.29330709       0.75000000 </v>
   <v>       0.45570866       0.29429134       0.75000000 </v>
   <v>       0.45472441       0.29527559       0.75000000 </v>
   <v>       0.45374016       0.29625984       0.75000000 </v>
   <v>       0.45275591       0.29724409       0.75000000 </v>
   <v>       0.45177165       0.29822835       0.75000000 </v>
   <v>       0.45078740       0.29921260       0.75000000 </v>
   <v>       0.44980315       0.30019685       0.75000000 </v>
   <v>       0.44881890       0.30118110       0.75000000 </v>
   <v>       0.44783465       0.30216535       0.75000000 </v>
   <v>       0.44685039       0.30314961       0.75000000 </v>
   <v>       0.44586614       0.30413386       0.75000000 </v>
   <v>       0.44488189       0.30511811       0.75000000 </v>
   <v>       0.44389764       0.30610236       0.75000000 </v>
   <v>       0.44291339       0.30708661       0.75000000 </v>
   <v>       0.44192913       0.30807087       0.75000000 </v>
   <v>       0.44094488       0.30905512       0.75000000 </v>
   <v>       0.43996063       0.31003937       0.75000000 </v>
   <v>       0.43897638       0.31102362       0.75000000 </v>
   <v>       0.43799213       0.31200787       0.75000000 </v>
   <v>       0.43700787       0.31299213       0.75000000 </v>
   <v>       0.43602362       0.31397638       0.75000000 </v>
   <v>       0.43503937       0.31496063       0.75000000 </v>
   <v>       0.43405512       0.31594488       0.75000000 </v>
   <v>       0.43307087       0.31692913       0.75000000 </v>
   <v>       0.43208661       0.31791339       0.75000000 </v>
   <v>       0.43110236       0.31889764       0.75000000 </v>
   <v>       0.43011811       0.31988189       0.75000000 </v>
   <v>       0.42913386       0.32086614       0.75000000 </v>
   <v>       0.42814961       0.32185039       0.75000000 </v>
   <v>       0.42716535       0.32283465       0.75000000 </v>
   <v>       0.42618110       0.32381890       0.75000000 </v>
   <v>       0.42519685       0.32480315       0.75000000 </v>
   <v>       0.42421260       0.32578740       0.75000000 </v>
   <v>       0.42322835       0.32677165       0.75000000 </v>
   <v>       0.42224409       0.32775591       0.75000000 </v>
   <v>       0.42125984       0.32874016       0.75000000 </v>
   <v>       0.42027559       0.32972441       0.75000000 </v>
   <v>       0.41929134       0.33070866       0.75000000 </v>
   <v>       0.41830709       0.33169291       0.75000000 </v>
   <v>       0.41732283       0.33267717       0.75000000 </v>
   <v>       0.41633858       0.33366142       0.75000000 </v>
   <v>       0.41535433       0.33464567       0.75000000 </v>
   <v>       0.41437008       0.33562992       0.75000000 </v>
   <v>       0.41338583       0.33661417       0.75000000 </v>
   <v>       0.41240157       0.33759843       0.75000000 </v>
   <v>       0.41141732       0.33858268       0.75000000 </v>
   <v>       0.41043307       0.33956693       0.75000000 </v>
   <v>       0.40944882       0.34055118       0.75000000 </v>
   <v>       0.40846457       0.34153543       0.75000000 </v>
   <v>       0.40748031       0.34251969       0.75000000 </v>
   <v>       0.40649606       0.34350394       0.75000000 </v>
   <v>       0.40551181       0.34448819       0.75000000 </v>
   <v>       0.40452756       0.34547244       0.75000000 </v>
   <v>       0.40354331       0.34645669       0.75000000 </v>
   <v>       0.40255906       0.34744094       0.75000000 </v>
   <v>       0.40157480       0.34842520       0.75000000 </v>
   <v>       0.40059055       0.34940945       0.75000000 </v>
   <v>       0.39960630       0.35039370       0.75000000 </v>
   <v>       0.39862205       0.35137795       0.75000000 </v>
   <v>       0.39763780       0.35236220       0.75000000 </v>
   <v>       0.39665354       0.35334646       0.75000000 </v>
   <v>       0.39566929       0.35433071       0.75000000 </v>
   <v>       0.39468504       0.35531496       0.75000000 </v>
   <v>       0.39370079       0.35629921       0.75000000 </v>
   <v>       0.39271654       0.35728346       0.75000000 </v>
   <v>       0.39173228       0.35826772       0.75000000 </v>
   <v>       0.39074803       0.35925197       0.75000000 </v>
   <v>       0.38976378       0.36023622       0.75000000 </v>
   <v>       0.38877953       0.36122047       0.75000000 </v>
   <v>       0.38779528       0.36220472       0.75000000 </v>
   <v>       0.38681102       0.36318898       0.75000000 </v>
   <v>       0.38582677       0.36417323       0.75000000 </v>
   <v>       0.38484252       0.36515748       0.75000000 </v>
   <v>       0.38385827       0.36614173       0.75000000 </v>
   <v>       0.38287402       0.36712598       0.75000000 </v>
   <v>       0.38188976       0.36811024       0.75000000 </v>
   <v>       0.38090551       0.36909449       0.75000000 </v>
   <v>       0.37992126       0.37007874       0.75000000 </v>
   <v>       0.37893701       0.37106299       0.75000000 </v>
   <v>       0.37795276       0.37204724       0.75000000 </v>
   <v>       0.37696850       0.37303150       0.75000000 </v>
   <v>       0.37598425       0.37401575       0.75000000 </v>
   <v>       0.37500000       0.37500000       0.75000000 </v>
   <v>       0.37500000       0.37500000       0.75000000 </v>
   <v>       0.37204724       0.37204724       0.74409449 </v>
   <v>       0.36909449       0.36909449       0.73818898 </v>
   <v>       0.36614173       0.36614173       0.73228346 </v>
   <v>       0.36318898       0.36318898       0.72637795 </v>
   <v>       0.36023622       0.36023622       0.72047244 </v>
   <v>       0.35728346       0.35728346       0.71456693 </v>
   <v>       0.35433071       0.35433071       0.70866142 </v>
   <v>       0.35137795       0.35137795       0.70275591 </v>
   <v>       0.34842520       0.34842520       0.69685039 </v>
   <v>       0.34547244       0.34547244       0.69094488 </v>
   <v>       0.34251969       0.34251969       0.68503937 </v>
   <v>       0.33956693       0.33956693       0.67913386 </v>
   <v>       0.33661417       0.33661417       0.67322835 </v>
   <v>       0.33366142       0.33366142       0.66732283 </v>
   <v>       0.33070866       0.33070866       0.66141732 </v>
   <v>       0.32775591       0.32775591       0.65551181 </v>
   <v>       0.32480315       0.32480315       0.64960630 </v>
   <v>       0.32185039       0.32185039       0.64370079 </v>
   <v>       0.31889764       0.31889764       0.63779528 </v>
   <v>       0.31594488       0.31594488       0.63188976 </v>
   <v>       0.31299213       0.31299213       0.62598425 </v>
   <v>       0.31003937       0.31003937       0.62007874 </v>
   <v>       0.30708661       0.30708661       0.61417323 </v>
   <v>       0.30413386       0.30413386       0.60826772 </v>
   <v>       0.30118110       0.30118110       0.60236220 </v>
   <v>       0.29822835       0.29822835       0.59645669 </v>
   <v>       0.29527559       0.29527559       0.59055118 </v>
   <v>       0.29232283       0.29232283       0.58464567 </v>
   <v>       0.28937008       0.28937008       0.57874016 </v>
   <v>       0.28641732       0.28641732       0.57283465 </v>
   <v>       0.28346457       0.28346457       0.56692913 </v>
   <v>       0.28051181       0.28051181       0.56102362 </v>
   <v>       0.27755906       0.27755906       0.55511811 </v>
   <v>       0.27460630       0.27460630       0.54921260 </v>
   <v>       0.27165354       0.27165354       0.54330709 </v>
   <v>       0.26870079       0.26870079       0.53740157 </v>
   <v>       0.26574803       0.26574803       0.53149606 </v>
   <v>       0.26279528       0.26279528       0.52559055 </v>
   <v>       0.25984252       0.25984252       0.51968504 </v>
   <v>       0.25688976       0.25688976       0.51377953 </v>
   <v>       0.25393701       0.25393701       0.50787402 </v>
   <v>       0.25098425       0.25098425       0.50196850 </v>
   <v>       0.24803150       0.24803150       0.49606299 </v>
   <v>       0.24507874       0.24507874       0.49015748 </v>
   <v>       0.24212598       0.24212598       0.48425197 </v>
   <v>       0.23917323       0.23917323       0.47834646 </v>
   <v>       0.23622047       0.23622047       0.47244094 </v>
   <v>       0.23326772       0.23326772       0.46653543 </v>
   <v>       0.23031496       0.23031496       0.46062992 </v>
   <v>       0.22736220       0.22736220       0.45472441 </v>
   <v>       0.22440945       0.22440945       0.44881890 </v>
   <v>       0.22145669       0.22145669       0.44291339 </v>
   <v>       0.21850394       0.21850394       0.43700787 </v>
   <v>       0.21555118       0.21555118       0.43110236 </v>
   <v>       0.21259843       0.21259843       0.42519685 </v>
   <v>       0.20964567       0.20964567       0.41929134 </v>
   <v>       0.20669291       0.20669291       0.41338583 </v>
   <v>       0.20374016       0.20374016       0.40748031 </v>
   <v>       0.20078740       0.20078740       0.40157480 </v>
   <v>       0.19783465       0.19783465       0.39566929 </v>
   <v>       0.19488189       0.19488189       0.38976378 </v>
   <v>       0.19192913       0.19192913       0.38385827 </v>
   <v>       0.18897638       0.18897638       0.37795276 </v>
   <v>       0.18602362       0.18602362       0.37204724 </v>
   <v>       0.18307087       0.18307087       0.36614173 </v>
   <v>       0.18011811       0.18011811       0.36023622 </v>
   <v>       0.17716535       0.17716535       0.35433071 </v>
   <v>       0.17421260       0.17421260       0.34842520 </v>
   <v>       0.17125984       0.17125984       0.34251969 </v>
   <v>       0.16830709       0.16830709       0.33661417 </v>
   <v>       0.16535433       0.16535433       0.33070866 </v>
   <v>       0.16240157       0.16240157       0.32480315 </v>
   <v>       0.15944882       0.15944882       0.31889764 </v>
   <v>       0.15649606       0.15649606       0.31299213 </v>
   <v>       0.15354331       0.15354331       0.30708661 </v>
   <v>       0.15059055       0.15059055       0.30118110 </v>
   <v>       0.14763780       0.14763780       0.29527559 </v>
   <v>       0.14468504       0.14468504       0.28937008 </v>
   <v>       0.14173228       0.14173228       0.28346457 </v>
   <v>       0.13877953       0.13877953       0.27755906 </v>
   <v>       0.13582677       0.13582677       0.27165354 </v>
   <v>       0.13287402       0.13287402       0.26574803 </v>
   <v>       0.12992126       0.12992126       0.25984252 </v>
   <v>       0.12696850       0.12696850       0.25393701 </v>
   <v>       0.12401575       0.12401575       0.24803150 </v>
   <v>       0.12106299       0.12106299       0.24212598 </v>
   <v>       0.11811024       0.11811024       0.23622047 </v>
   <v>       0.11515748       0.11515748       0.23031496 </v>
   <v>       0.11220472       0.11220472       0.22440945 </v>
   <v>       0.10925197       0.10925197       0.21850394 </v>
   <v>       0.10629921       0.10629921       0.21259843 </v>
   <v>       0.10334646       0.10334646       0.20669291 </v>
   <v>       0.10039370       0.10039370       0.20078740 </v>
   <v>       0.09744094       0.09744094       0.19488189 </v>
   <v>       0.09448819       0.09448819       0.18897638 </v>
   <v>       0.09153543       0.09153543       0.18307087 </v>
   <v>       0.08858268       0.08858268       0.17716535 </v>
   <v>       0.08562992       0.08562992       0.17125984 </v>
   <v>       0.08267717       0.08267717       0.16535433 </v>
   <v>       0.07972441       0.07972441       0.15944882 </v>
   <v>       0.07677165       0.07677165       0.15354331 </v>
   <v>       0.07381890       0.07381890       0.14763780 </v>
   <v>       0.07086614       0.07086614       0.14173228 </v>
   <v>       0.06791339       0.06791339       0.13582677 </v>
   <v>       0.06496063       0.06496063       0.12992126 </v>
   <v>       0.06200787       0.06200787       0.12401575 </v>
   <v>       0.05905512       0.05905512       0.11811024 </v>
   <v>       0.05610236       0.05610236       0.11220472 </v>
   <v>       0.05314961       0.05314961       0.10629921 </v>
   <v>       0.05019685       0.05019685       0.10039370 </v>
   <v>       0.04724409       0.04724409       0.09448819 </v>
   <v>       0.04429134       0.04429134       0.08858268 </v>
   <v>       0.04133858       0.04133858       0.08267717 </v>
   <v>       0.03838583       0.03838583       0.07677165 </v>
   <v>       0.03543307       0.03543307       0.07086614 </v>
   <v>       0.03248031       0.03248031       0.06496063 </v>
   <v>       0.02952756       0.02952756       0.05905512 </v>
   <v>       0.02657480       0.02657480       0.05314961 </v>
   <v>       0.02362205       0.02362205       0.04724409 </v>
   <v>       0.02066929       0.02066929       0.04133858 </v>
   <v>       0.01771654       0.01771654       0.03543307 </v>
   <v>       0.01476378       0.01476378       0.02952756 </v>
   <v>       0.01181102       0.01181102       0.02362205 </v>
   <v>       0.00885827       0.00885827       0.01771654 </v>
   <v>       0.00590551       0.00590551       0.01181102 </v>
   <v>       0.00295276       0.00295276       0.00590551 </v>
   <v>       0.00000000       0.00000000       0.00000000 </v>
   <v>       0.00000000       0.00000000       0.00000000 </v>
   <v>       0.00393701       0.00393701       0.00393701 </v>
   <v>       0.00787402       0.00787402       0.00787402 </v>
   <v>       0.01181102       0.01181102       0.01181102 </v>
   <v>       0.01574803       0.01574803       0.01574803 </v>
   <v>       0.01968504       0.01968504       0.01968504 </v>
   <v>       0.02362205       0.02362205       0.02362205 </v>
   <v>       0.02755906       0.02755906       0.02755906 </v>
   <v>       0.03149606       0.03149606       0.03149606 </v>
   <v>       0.03543307       0.03543307       0.03543307 </v>
   <v>       0.03937008       0.03937008       0.03937008 </v>
   <v>       0.04330709       0.04330709       0.04330709 </v>
   <v>       0.04724409       0.04724409       0.04724409 </v>
   <v>       0.05118110       0.05118110       0.05118110 </v>
   <v>       0.05511811       0.05511811       0.05511811 </v>
   <v>       0.05905512       0.05905512       0.05905512 </v>
   <v>       0.06299213       0.06299213       0.06299213 </v>
   <v>       0.06692913       0.06692913       0.06692913 </v>
   <v>       0.07086614       0.07086614       0.07086614 </v>
   <v>       0.07480315       0.07480315       0.07480315 </v>
   <v>       0.07874016       0.07874016       0.07874016 </v>
   <v>       0.08267717       0.08267717       0.08267717 </v>
   <v>       0.08661417       0.08661417       0.08661417 </v>
   <v>       0.09055118       0.09055118       0.09055118 </v>
   <v>       0.09448819       0.09448819       0.09448819 </v>
   <v>       0.09842520       0.09842520       0.09842520 </v>
   <v>       0.10236220       0.10236220       0.10236220 </v>
   <v>       0.10629921       0.10629921       0.10629921 </v>
   <v>       0.11023622       0.11023622       0.11023622 </v>
   <v>       0.11417323       0.11417323       0.11417323 </v>
   <v>       0.11811024       0.11811024       0.11811024 </v>
   <v>       0.12204724       0.12204724       0.12204724 </v>
   <v>       0.12598425       0.12598425       0.12598425 </v>
   <v>       0.12992126       0.12992126       0.12992126 </v>
   <v>       0.13385827       0.13385827       0.13385827 </v>
   <v>       0.13779528       0.13779528       0.13779528 </v>
   <v>       0.14173228       0.14173228       0.14173228 </v>
   <v>       0.14566929       0.14566929       0.14566929 </v>
   <v>       0.14960630       0.14960630       0.14960630 </v>
   <v>       0.15354331       0.15354331       0.15354331 </v>
   <v>       0.15748031       0.15748031       0.15748031 </v>
   <v>       0.16141732       0.16141732       0.16141732 </v>
   <v>       0.16535433       0.16535433       0.16535433 </v>
   <v>       0.16929134       0.16929134       0.16929134 </v>
   <v>       0.17322835       0.17322835       0.17322835 </v>
   <v>       0.17716535       0.17716535       0.17716535 </v>
   <v>       0.18110236       0.18110236       0.18110236 </v>
   <v>       0.18503937       0.18503937       0.18503937 </v>
   <v>       0.18897638       0.18897638       0.18897638 </v>
   <v>       0.19291339       0.19291339       0.19291339 </v>
   <v>       0.19685039       0.19685039       0.19685039 </v>
   <v>       0.20078740       0.20078740       0.20078740 </v>
   <v>       0.20472441       0.20472441       0.20472441 </v>
   <v>       0.20866142       0.20866142       0.20866142 </v>
   <v>       0.21259843       0.21259843       0.21259843 </v>
   <v>       0.21653543       0.21653543       0.21653543 </v>
   <v>       0.22047244       0.22047244       0.22047244 </v>
   <v>       0.22440945       0.22440945       0.22440945 </v>
   <v>       0.22834646       0.22834646       0.22834646 </v>
   <v>       0.23228346       0.23228346       0.23228346 </v>
   <v>       0.23622047       0.23622047       0.23622047 </v>
   <v>       0.24015748       0.24015748       0.24015748 </v>
   <v>       0.24409449       0.24409449       0.24409449 </v>
   <v>       0.24803150       0.24803150       0.24803150 </v>
   <v>       0.25196850       0.25196850       0.25196850 </v>
   <v>       0.25590551       0.25590551       0.25590551 </v>
   <v>       0.25984252       0.25984252       0.25984252 </v>
   <v>       0.26377953       0.26377953       0.26377953 </v>
   <v>       0.26771654       0.26771654       0.26771654 </v>
   <v>       0.27165354       0.27165354       0.27165354 </v>
   <v>       0.27559055       0.27559055       0.27559055 </v>
   <v>       0.27952756       0.27952756       0.27952756 </v>
   <v>       0.28346457       0.28346457       0.28346457 </v>
   <v>       0.28740157       0.28740157       0.28740157 </v>
   <v>       0.29133858       0.29133858       0.29133858 </v>
   <v>       0.29527559       0.29527559       0.29527559 </v>
   <v>       0.29921260       0.29921260       0.29921260 </v>
   <v>       0.30314961       0.30314961       0.30314961 </v>
   <v>       0.30708661       0.30708661       0.30708661 </v>
   <v>       0.31102362       0.31102362       0.31102362 </v>
   <v>       0.31496063       0.31496063       0.31496063 </v>
   <v>       0.31889764       0.31889764       0.31889764 </v>
   <v>       0.32283465       0.32283465       0.32283465 </v>
   <v>       0.32677165       0.32677165       0.32677165 </v>
   <v>       0.33070866       0.33070866       0.33070866 </v>
   <v>       0.33464567       0.33464567       0.33464567 </v>
   <v>       0.33858268       0.33858268       0.33858268 </v>
   <v>       0.34251969       0.34251969       0.34251969 </v>
   <v>       0.34645669       0.34645669       0.34645669 </v>
   <v>       0.35039370       0.35039370       0.35039370 </v>
   <v>       0.35433071       0.35433071       0.35433071 </v>
   <v>       0.35826772       0.35826772       0.35826772 </v>
   <v>       0.36220472       0.36220472       0.36220472 </v>
   <v>       0.36614173       0.36614173       0.36614173 </v>
   <v>       0.37007874       0.37007874       0.37007874 </v>
   <v>       0.37401575       0.37401575       0.37401575 </v>
   <v>       0.37795276       0.37795276       0.37795276 </v>
   <v>       0.38188976       0.38188976       0.38188976 </v>
   <v>       0.38582677       0.38582677       0.38582677 </v>
   <v>       0.38976378       0.38976378       0.38976378 </v>
   <v>       0.39370079       0.39370079       0.39370079 </v>
   <v>       0.39763780       0.39763780       0.39763780 </v>
   <v>       0.40157480       0.40157480       0.40157480 </v>
   <v>       0.40551181       0.40551181       0.40551181 </v>
   <v>       0.40944882       0.40944882       0.40944882 </v>
   <v>       0.41338583       0.41338583       0.41338583 </v>
   <v>       0.41732283       0.41732283       0.41732283 </v>
   <v>       0.42125984       0.42125984       0.42125984 </v>
   <v>       0.42519685       0.42519685       0.42519685 </v>
   <v>       0.42913386       0.42913386       0.42913386 </v>
   <v>       0.43307087       0.43307087       0.43307087 </v>
   <v>       0.43700787       0.43700787       0.43700787 </v>
   <v>       0.44094488       0.44094488       0.44094488 </v>
   <v>       0.44488189       0.44488189       0.44488189 </v>
   <v>       0.44881890       0.44881890       0.44881890 </v>
   <v>       0.45275591       0.45275591       0.45275591 </v>
   <v>       0.45669291       0.45669291       0.45669291 </v>
   <v>       0.46062992       0.46062992       0.46062992 </v>
   <v>       0.46456693       0.46456693       0.46456693 </v>
   <v>       0.46850394       0.46850394       0.46850394 </v>
   <v>       0.47244094       0.47244094       0.47244094 </v>
   <v>       0.47637795       0.47637795       0.47637795 </v>
   <v>       0.48031496       0.48031496       0.48031496 </v>
   <v>       0.48425197       0.48425197       0.48425197 </v>
   <v>       0.48818898       0.48818898       0.48818898 </v>
   <v>       0.49212598       0.49212598       0.49212598 </v>
   <v>       0.49606299       0.49606299       0.49606299 </v>
   <v>       0.50000000       0.50000000       0.50000000 </v>
   <v>       0.50000000       0.50000000       0.50000000 </v>
   <v>       0.50098425       0.49803150       0.50098425 </v>
   <v>       0.50196850       0.49606299       0.50196850 </v>
   <v>       0.50295276       0.49409449       0.50295276 </v>
   <v>       0.50393701       0.49212598       0.50393701 </v>
   <v>       0.50492126       0.49015748       0.50492126 </v>
   <v>       0.50590551       0.48818898       0.50590551 </v>
   <v>       0.50688976       0.48622047       0.50688976 </v>
   <v>       0.50787402       0.48425197       0.50787402 </v>
   <v>       0.50885827       0.48228346       0.50885827 </v>
   <v>       0.50984252       0.48031496       0.50984252 </v>
   <v>       0.51082677       0.47834646       0.51082677 </v>
   <v>       0.51181102       0.47637795       0.51181102 </v>
   <v>       0.51279528       0.47440945       0.51279528 </v>
   <v>       0.51377953       0.47244094       0.51377953 </v>
   <v>       0.51476378       0.47047244       0.51476378 </v>
   <v>       0.51574803       0.46850394       0.51574803 </v>
   <v>       0.51673228       0.46653543       0.51673228 </v>
   <v>       0.51771654       0.46456693       0.51771654 </v>
   <v>       0.51870079       0.46259843       0.51870079 </v>
   <v>       0.51968504       0.46062992       0.51968504 </v>
   <v>       0.52066929       0.45866142       0.52066929 </v>
   <v>       0.52165354       0.45669291       0.52165354 </v>
   <v>       0.52263780       0.45472441       0.52263780 </v>
   <v>       0.52362205       0.45275591       0.52362205 </v>
   <v>       0.52460630       0.45078740       0.52460630 </v>
   <v>       0.52559055       0.44881890       0.52559055 </v>
   <v>       0.52657480       0.44685039       0.52657480 </v>
   <v>       0.52755906       0.44488189       0.52755906 </v>
   <v>       0.52854331       0.44291339       0.52854331 </v>
   <v>       0.52952756       0.44094488       0.52952756 </v>
   <v>       0.53051181       0.43897638       0.53051181 </v>
   <v>       0.53149606       0.43700787       0.53149606 </v>
   <v>       0.53248031       0.43503937       0.53248031 </v>
   <v>       0.53346457       0.43307087       0.53346457 </v>
   <v>       0.53444882       0.43110236       0.53444882 </v>
   <v>       0.53543307       0.42913386       0.53543307 </v>
   <v>       0.53641732       0.42716535       0.53641732 </v>
   <v>       0.53740157       0.42519685       0.53740157 </v>
   <v>       0.53838583       0.42322835       0.53838583 </v>
   <v>       0.53937008       0.42125984       0.53937008 </v>
   <v>       0.54035433       0.41929134       0.54035433 </v>
   <v>       0.54133858       0.41732283       0.54133858 </v>
   <v>       0.54232283       0.41535433       0.54232283 </v>
   <v>       0.54330709       0.41338583       0.54330709 </v>
   <v>       0.54429134       0.41141732       0.54429134 </v>
   <v>       0.54527559       0.40944882       0.54527559 </v>
   <v>       0.54625984       0.40748031       0.54625984 </v>
   <v>       0.54724409       0.40551181       0.54724409 </v>
   <v>       0.54822835       0.40354331       0.54822835 </v>
   <v>       0.54921260       0.40157480       0.54921260 </v>
   <v>       0.55019685       0.39960630       0.55019685 </v>
   <v>       0.55118110       0.39763780       0.55118110 </v>
   <v>       0.55216535       0.39566929       0.55216535 </v>
   <v>       0.55314961       0.39370079       0.55314961 </v>
   <v>       0.55413386       0.39173228       0.55413386 </v>
   <v>       0.55511811       0.38976378       0.55511811 </v>
   <v>       0.55610236       0.38779528       0.55610236 </v>
   <v>       0.55708661       0.38582677       0.55708661 </v>
   <v>       0.55807087       0.38385827       0.55807087 </v>
   <v>       0.55905512       0.38188976       0.55905512 </v>
   <v>       0.56003937       0.37992126       0.56003937 </v>
   <v>       0.56102362       0.37795276       0.56102362 </v>
   <v>       0.56200787       0.37598425       0.56200787 </v>
   <v>       0.56299213       0.37401575       0.56299213 </v>
   <v>       0.56397638       0.37204724       0.56397638 </v>
   <v>       0.56496063       0.37007874       0.56496063 </v>
   <v>       0.56594488       0.36811024       0.56594488 </v>
   <v>       0.56692913       0.36614173       0.56692913 </v>
   <v>       0.56791339       0.36417323       0.56791339 </v>
   <v>       0.56889764       0.36220472       0.56889764 </v>
   <v>       0.56988189       0.36023622       0.56988189 </v>
   <v>       0.57086614       0.35826772       0.57086614 </v>
   <v>       0.57185039       0.35629921       0.57185039 </v>
   <v>       0.57283465       0.35433071       0.57283465 </v>
   <v>       0.57381890       0.35236220       0.57381890 </v>
   <v>       0.57480315       0.35039370       0.57480315 </v>
   <v>       0.57578740       0.34842520       0.57578740 </v>
   <v>       0.57677165       0.34645669       0.57677165 </v>
   <v>       0.57775591       0.34448819       0.57775591 </v>
   <v>       0.57874016       0.34251969       0.57874016 </v>
   <v>       0.57972441       0.34055118       0.57972441 </v>
   <v>       0.58070866       0.33858268       0.58070866 </v>
   <v>       0.58169291       0.33661417       0.58169291 </v>
   <v>       0.58267717       0.33464567       0.58267717 </v>
   <v>       0.58366142       0.33267717       0.58366142 </v>
   <v>       0.58464567       0.33070866       0.58464567 </v>
   <v>       0.58562992       0.32874016       0.58562992 </v>
   <v>       0.58661417       0.32677165       0.58661417 </v>
   <v>       0.58759843       0.32480315       0.58759843 </v>
   <v>       0.58858268       0.32283465       0.58858268 </v>
   <v>       0.58956693       0.32086614       0.58956693 </v>
   <v>       0.59055118       0.31889764       0.59055118 </v>
   <v>       0.59153543       0.31692913       0.59153543 </v>
   <v>       0.59251969       0.31496063       0.59251969 </v>
   <v>       0.59350394       0.31299213       0.59350394 </v>
   <v>       0.59448819       0.31102362       0.59448819 </v>
   <v>       0.59547244       0.30905512       0.59547244 </v>
   <v>       0.59645669       0.30708661       0.59645669 </v>
   <v>       0.59744094       0.30511811       0.59744094 </v>
   <v>       0.59842520       0.30314961       0.59842520 </v>
   <v>       0.59940945       0.30118110       0.59940945 </v>
   <v>       0.60039370       0.29921260       0.60039370 </v>
   <v>       0.60137795       0.29724409       0.60137795 </v>
   <v>       0.60236220       0.29527559       0.60236220 </v>
   <v>       0.60334646       0.29330709       0.60334646 </v>
   <v>       0.60433071       0.29133858       0.60433071 </v>
   <v>       0.60531496       0.28937008       0.60531496 </v>
   <v>       0.60629921       0.28740157       0.60629921 </v>
   <v>       0.60728346       0.28543307       0.60728346 </v>
   <v>       0.60826772       0.28346457       0.60826772 </v>
   <v>       0.60925197       0.28149606       0.60925197 </v>
   <v>       0.61023622       0.27952756       0.61023622 </v>
   <v>       0.61122047       0.27755906       0.61122047 </v>
   <v>       0.61220472       0.27559055       0.61220472 </v>
   <v>       0.61318898       0.27362205       0.61318898 </v>
   <v>       0.61417323       0.27165354       0.61417323 </v>
   <v>       0.61515748       0.26968504       0.61515748 </v>
   <v>       0.61614173       0.26771654       0.61614173 </v>
   <v>       0.61712598       0.26574803       0.61712598 </v>
   <v>       0.61811024       0.26377953       0.61811024 </v>
   <v>       0.61909449       0.26181102       0.61909449 </v>
   <v>       0.62007874       0.25984252       0.62007874 </v>
   <v>       0.62106299       0.25787402       0.62106299 </v>
   <v>       0.62204724       0.25590551       0.62204724 </v>
   <v>       0.62303150       0.25393701       0.62303150 </v>
   <v>       0.62401575       0.25196850       0.62401575 </v>
   <v>       0.62500000       0.25000000       0.62500000 </v>
   <v>       0.62500000       0.25000000       0.62500000 </v>
   <v>       0.62401575       0.25000000       0.62598425 </v>
   <v>       0.62303150       0.25000000       0.62696850 </v>
   <v>       0.62204724       0.25000000       0.62795276 </v>
   <v>       0.62106299       0.25000000       0.62893701 </v>
   <v>       0.62007874       0.25000000       0.62992126 </v>
   <v>       0.61909449       0.25000000       0.63090551 </v>
   <v>       0.61811024       0.25000000       0.63188976 </v>
   <v>       0.61712598       0.25000000       0.63287402 </v>
   <v>       0.61614173       0.25000000       0.63385827 </v>
   <v>       0.61515748       0.25000000       0.63484252 </v>
   <v>       0.61417323       0.25000000       0.63582677 </v>
   <v>       0.61318898       0.25000000       0.63681102 </v>
   <v>       0.61220472       0.25000000       0.63779528 </v>
   <v>       0.61122047       0.25000000       0.63877953 </v>
   <v>       0.61023622       0.25000000       0.63976378 </v>
   <v>       0.60925197       0.25000000       0.64074803 </v>
   <v>       0.60826772       0.25000000       0.64173228 </v>
   <v>       0.60728346       0.25000000       0.64271654 </v>
   <v>       0.60629921       0.25000000       0.64370079 </v>
   <v>       0.60531496       0.25000000       0.64468504 </v>
   <v>       0.60433071       0.25000000       0.64566929 </v>
   <v>       0.60334646       0.25000000       0.64665354 </v>
   <v>       0.60236220       0.25000000       0.64763780 </v>
   <v>       0.60137795       0.25000000       0.64862205 </v>
   <v>       0.60039370       0.25000000       0.64960630 </v>
   <v>       0.59940945       0.25000000       0.65059055 </v>
   <v>       0.59842520       0.25000000       0.65157480 </v>
   <v>       0.59744094       0.25000000       0.65255906 </v>
   <v>       0.59645669       0.25000000       0.65354331 </v>
   <v>       0.59547244       0.25000000       0.65452756 </v>
   <v>       0.59448819       0.25000000       0.65551181 </v>
   <v>       0.59350394       0.25000000       0.65649606 </v>
   <v>       0.59251969       0.25000000       0.65748031 </v>
   <v>       0.59153543       0.25000000       0.65846457 </v>
   <v>       0.59055118       0.25000000       0.65944882 </v>
   <v>       0.58956693       0.25000000       0.66043307 </v>
   <v>       0.58858268       0.25000000       0.66141732 </v>
   <v>       0.58759843       0.25000000       0.66240157 </v>
   <v>       0.58661417       0.25000000       0.66338583 </v>
   <v>       0.58562992       0.25000000       0.66437008 </v>
   <v>       0.58464567       0.25000000       0.66535433 </v>
   <v>       0.58366142       0.25000000       0.66633858 </v>
   <v>       0.58267717       0.25000000       0.66732283 </v>
   <v>       0.58169291       0.25000000       0.66830709 </v>
   <v>       0.58070866       0.25000000       0.66929134 </v>
   <v>       0.57972441       0.25000000       0.67027559 </v>
   <v>       0.57874016       0.25000000       0.67125984 </v>
   <v>       0.57775591       0.25000000       0.67224409 </v>
   <v>       0.57677165       0.25000000       0.67322835 </v>
   <v>       0.57578740       0.25000000       0.67421260 </v>
   <v>       0.57480315       0.25000000       0.67519685 </v>
   <v>       0.57381890       0.25000000       0.67618110 </v>
   <v>       0.57283465       0.25000000       0.67716535 </v>
   <v>       0.57185039       0.25000000       0.67814961 </v>
   <v>       0.57086614       0.25000000       0.67913386 </v>
   <v>       0.56988189       0.25000000       0.68011811 </v>
   <v>       0.56889764       0.25000000       0.68110236 </v>
   <v>       0.56791339       0.25000000       0.68208661 </v>
   <v>       0.56692913       0.25000000       0.68307087 </v>
   <v>       0.56594488       0.25000000       0.68405512 </v>
   <v>       0.56496063       0.25000000       0.68503937 </v>
   <v>       0.56397638       0.25000000       0.68602362 </v>
   <v>       0.56299213       0.25000000       0.68700787 </v>
   <v>       0.56200787       0.25000000       0.68799213 </v>
   <v>       0.56102362       0.25000000       0.68897638 </v>
   <v>       0.56003937       0.25000000       0.68996063 </v>
   <v>       0.55905512       0.25000000       0.69094488 </v>
   <v>       0.55807087       0.25000000       0.69192913 </v>
   <v>       0.55708661       0.25000000       0.69291339 </v>
   <v>       0.55610236       0.25000000       0.69389764 </v>
   <v>       0.55511811       0.25000000       0.69488189 </v>
   <v>       0.55413386       0.25000000       0.69586614 </v>
   <v>       0.55314961       0.25000000       0.69685039 </v>
   <v>       0.55216535       0.25000000       0.69783465 </v>
   <v>       0.55118110       0.25000000       0.69881890 </v>
   <v>       0.55019685       0.25000000       0.69980315 </v>
   <v>       0.54921260       0.25000000       0.70078740 </v>
   <v>       0.54822835       0.25000000       0.70177165 </v>
   <v>       0.54724409       0.25000000       0.70275591 </v>
   <v>       0.54625984       0.25000000       0.70374016 </v>
   <v>       0.54527559       0.25000000       0.70472441 </v>
   <v>       0.54429134       0.25000000       0.70570866 </v>
   <v>       0.54330709       0.25000000       0.70669291 </v>
   <v>       0.54232283       0.25000000       0.70767717 </v>
   <v>       0.54133858       0.25000000       0.70866142 </v>
   <v>       0.54035433       0.25000000       0.70964567 </v>
   <v>       0.53937008       0.25000000       0.71062992 </v>
   <v>       0.53838583       0.25000000       0.71161417 </v>
   <v>       0.53740157       0.25000000       0.71259843 </v>
   <v>       0.53641732       0.25000000       0.71358268 </v>
   <v>       0.53543307       0.25000000       0.71456693 </v>
   <v>       0.53444882       0.25000000       0.71555118 </v>
   <v>       0.53346457       0.25000000       0.71653543 </v>
   <v>       0.53248031       0.25000000       0.71751969 </v>
   <v>       0.53149606       0.25000000       0.71850394 </v>
   <v>       0.53051181       0.25000000       0.71948819 </v>
   <v>       0.52952756       0.25000000       0.72047244 </v>
   <v>       0.52854331       0.25000000       0.72145669 </v>
   <v>       0.52755906       0.25000000       0.72244094 </v>
   <v>       0.52657480       0.25000000       0.72342520 </v>
   <v>       0.52559055       0.25000000       0.72440945 </v>
   <v>       0.52460630       0.25000000       0.72539370 </v>
   <v>       0.52362205       0.25000000       0.72637795 </v>
   <v>       0.52263780       0.25000000       0.72736220 </v>
   <v>       0.52165354       0.25000000       0.72834646 </v>
   <v>       0.52066929       0.25000000       0.72933071 </v>
   <v>       0.51968504       0.25000000       0.73031496 </v>
   <v>       0.51870079       0.25000000       0.73129921 </v>
   <v>       0.51771654       0.25000000       0.73228346 </v>
   <v>       0.51673228       0.25000000       0.73326772 </v>
   <v>       0.51574803       0.25000000       0.73425197 </v>
   <v>       0.51476378       0.25000000       0.73523622 </v>
   <v>       0.51377953       0.25000000       0.73622047 </v>
   <v>       0.51279528       0.25000000       0.73720472 </v>
   <v>       0.51181102       0.25000000       0.73818898 </v>
   <v>       0.51082677       0.25000000       0.73917323 </v>
   <v>       0.50984252       0.25000000       0.74015748 </v>
   <v>       0.50885827       0.25000000       0.74114173 </v>
   <v>       0.50787402       0.25000000       0.74212598 </v>
   <v>       0.50688976       0.25000000       0.74311024 </v>
   <v>       0.50590551       0.25000000       0.74409449 </v>
   <v>       0.50492126       0.25000000       0.74507874 </v>
   <v>       0.50393701       0.25000000       0.74606299 </v>
   <v>       0.50295276       0.25000000       0.74704724 </v>
   <v>       0.50196850       0.25000000       0.74803150 </v>
   <v>       0.50098425       0.25000000       0.74901575 </v>
   <v>       0.50000000       0.25000000       0.75000000 </v>
   <v>       0.50000000       0.25000000       0.75000000 </v>
   <v>       0.50000000       0.25196850       0.74803150 </v>
   <v>       0.50000000       0.25393701       0.74606299 </v>
   <v>       0.50000000       0.25590551       0.74409449 </v>
   <v>       0.50000000       0.25787402       0.74212598 </v>
   <v>       0.50000000       0.25984252       0.74015748 </v>
   <v>       0.50000000       0.26181102       0.73818898 </v>
   <v>       0.50000000       0.26377953       0.73622047 </v>
   <v>       0.50000000       0.26574803       0.73425197 </v>
   <v>       0.50000000       0.26771654       0.73228346 </v>
   <v>       0.50000000       0.26968504       0.73031496 </v>
   <v>       0.50000000       0.27165354       0.72834646 </v>
   <v>       0.50000000       0.27362205       0.72637795 </v>
   <v>       0.50000000       0.27559055       0.72440945 </v>
   <v>       0.50000000       0.27755906       0.72244094 </v>
   <v>       0.50000000       0.27952756       0.72047244 </v>
   <v>       0.50000000       0.28149606       0.71850394 </v>
   <v>       0.50000000       0.28346457       0.71653543 </v>
   <v>       0.50000000       0.28543307       0.71456693 </v>
   <v>       0.50000000       0.28740157       0.71259843 </v>
   <v>       0.50000000       0.28937008       0.71062992 </v>
   <v>       0.50000000       0.29133858       0.70866142 </v>
   <v>       0.50000000       0.29330709       0.70669291 </v>
   <v>       0.50000000       0.29527559       0.70472441 </v>
   <v>       0.50000000       0.29724409       0.70275591 </v>
   <v>       0.50000000       0.29921260       0.70078740 </v>
   <v>       0.50000000       0.30118110       0.69881890 </v>
   <v>       0.50000000       0.30314961       0.69685039 </v>
   <v>       0.50000000       0.30511811       0.69488189 </v>
   <v>       0.50000000       0.30708661       0.69291339 </v>
   <v>       0.50000000       0.30905512       0.69094488 </v>
   <v>       0.50000000       0.31102362       0.68897638 </v>
   <v>       0.50000000       0.31299213       0.68700787 </v>
   <v>       0.50000000       0.31496063       0.68503937 </v>
   <v>       0.50000000       0.31692913       0.68307087 </v>
   <v>       0.50000000       0.31889764       0.68110236 </v>
   <v>       0.50000000       0.32086614       0.67913386 </v>
   <v>       0.50000000       0.32283465       0.67716535 </v>
   <v>       0.50000000       0.32480315       0.67519685 </v>
   <v>       0.50000000       0.32677165       0.67322835 </v>
   <v>       0.50000000       0.32874016       0.67125984 </v>
   <v>       0.50000000       0.33070866       0.66929134 </v>
   <v>       0.50000000       0.33267717       0.66732283 </v>
   <v>       0.50000000       0.33464567       0.66535433 </v>
   <v>       0.50000000       0.33661417       0.66338583 </v>
   <v>       0.50000000       0.33858268       0.66141732 </v>
   <v>       0.50000000       0.34055118       0.65944882 </v>
   <v>       0.50000000       0.34251969       0.65748031 </v>
   <v>       0.50000000       0.34448819       0.65551181 </v>
   <v>       0.50000000       0.34645669       0.65354331 </v>
   <v>       0.50000000       0.34842520       0.65157480 </v>
   <v>       0.50000000       0.35039370       0.64960630 </v>
   <v>       0.50000000       0.35236220       0.64763780 </v>
   <v>       0.50000000       0.35433071       0.64566929 </v>
   <v>       0.50000000       0.35629921       0.64370079 </v>
   <v>       0.50000000       0.35826772       0.64173228 </v>
   <v>       0.50000000       0.36023622       0.63976378 </v>
   <v>       0.50000000       0.36220472       0.63779528 </v>
   <v>       0.50000000       0.36417323       0.63582677 </v>
   <v>       0.50000000       0.36614173       0.63385827 </v>
   <v>       0.50000000       0.36811024       0.63188976 </v>
   <v>       0.50000000       0.37007874       0.62992126 </v>
   <v>       0.50000000       0.37204724       0.62795276 </v>
   <v>       0.50000000       0.37401575       0.62598425 </v>
   <v>       0.50000000       0.37598425       0.62401575 </v>
   <v>       0.50000000       0.37795276       0.62204724 </v>
   <v>       0.50000000       0.37992126       0.62007874 </v>
   <v>       0.50000000       0.38188976       0.61811024 </v>
   <v>       0.50000000       0.38385827       0.61614173 </v>
   <v>       0.50000000       0.38582677       0.61417323 </v>
   <v>       0.50000000       0.38779528       0.61220472 </v>
   <v>       0.50000000       0.38976378       0.61023622 </v>
   <v>       0.50000000       0.39173228       0.60826772 </v>
   <v>       0.50000000       0.39370079       0.60629921 </v>
   <v>       0.50000000       0.39566929       0.60433071 </v>
   <v>       0.50000000       0.39763780       0.60236220 </v>
   <v>       0.50000000       0.39960630       0.60039370 </v>
   <v>       0.50000000       0.40157480       0.59842520 </v>
   <v>       0.50000000       0.40354331       0.59645669 </v>
   <v>       0.50000000       0.40551181       0.59448819 </v>
   <v>       0.50000000       0.40748031       0.59251969 </v>
   <v>       0.50000000       0.40944882       0.59055118 </v>
   <v>       0.50000000       0.41141732       0.58858268 </v>
   <v>       0.50000000       0.41338583       0.58661417 </v>
   <v>       0.50000000       0.41535433       0.58464567 </v>
   <v>       0.50000000       0.41732283       0.58267717 </v>
   <v>       0.50000000       0.41929134       0.58070866 </v>
   <v>       0.50000000       0.42125984       0.57874016 </v>
   <v>       0.50000000       0.42322835       0.57677165 </v>
   <v>       0.50000000       0.42519685       0.57480315 </v>
   <v>       0.50000000       0.42716535       0.57283465 </v>
   <v>       0.50000000       0.42913386       0.57086614 </v>
   <v>       0.50000000       0.43110236       0.56889764 </v>
   <v>       0.50000000       0.43307087       0.56692913 </v>
   <v>       0.50000000       0.43503937       0.56496063 </v>
   <v>       0.50000000       0.43700787       0.56299213 </v>
   <v>       0.50000000       0.43897638       0.56102362 </v>
   <v>       0.50000000       0.44094488       0.55905512 </v>
   <v>       0.50000000       0.44291339       0.55708661 </v>
   <v>       0.50000000       0.44488189       0.55511811 </v>
   <v>       0.50000000       0.44685039       0.55314961 </v>
   <v>       0.50000000       0.44881890       0.55118110 </v>
   <v>       0.50000000       0.45078740       0.54921260 </v>
   <v>       0.50000000       0.45275591       0.54724409 </v>
   <v>       0.50000000       0.45472441       0.54527559 </v>
   <v>       0.50000000       0.45669291       0.54330709 </v>
   <v>       0.50000000       0.45866142       0.54133858 </v>
   <v>       0.50000000       0.46062992       0.53937008 </v>
   <v>       0.50000000       0.46259843       0.53740157 </v>
   <v>       0.50000000       0.46456693       0.53543307 </v>
   <v>       0.50000000       0.46653543       0.53346457 </v>
   <v>       0.50000000       0.46850394       0.53149606 </v>
   <v>       0.50000000       0.47047244       0.52952756 </v>
   <v>       0.50000000       0.47244094       0.52755906 </v>
   <v>       0.50000000       0.47440945       0.52559055 </v>
   <v>       0.50000000       0.47637795       0.52362205 </v>
   <v>       0.50000000       0.47834646       0.52165354 </v>
   <v>       0.50000000       0.48031496       0.51968504 </v>
   <v>       0.50000000       0.48228346       0.51771654 </v>
   <v>       0.50000000       0.48425197       0.51574803 </v>
   <v>       0.50000000       0.48622047       0.51377953 </v>
   <v>       0.50000000       0.48818898       0.51181102 </v>
   <v>       0.50000000       0.49015748       0.50984252 </v>
   <v>       0.50000000       0.49212598       0.50787402 </v>
   <v>       0.50000000       0.49409449       0.50590551 </v>
   <v>       0.50000000       0.49606299       0.50393701 </v>
   <v>       0.50000000       0.49803150       0.50196850 </v>
   <v>       0.50000000       0.50000000       0.50000000 </v>
   <v>       0.50000000       0.50000000       0.50000000 </v>
   <v>       0.49901575       0.49901575       0.50196850 </v>
   <v>       0.49803150       0.49803150       0.50393701 </v>
   <v>       0.49704724       0.49704724       0.50590551 </v>
   <v>       0.49606299       0.49606299       0.50787402 </v>
   <v>       0.49507874       0.49507874       0.50984252 </v>
   <v>       0.49409449       0.49409449       0.51181102 </v>
   <v>       0.49311024       0.49311024       0.51377953 </v>
   <v>       0.49212598       0.49212598       0.51574803 </v>
   <v>       0.49114173       0.49114173       0.51771654 </v>
   <v>       0.49015748       0.49015748       0.51968504 </v>
   <v>       0.48917323       0.48917323       0.52165354 </v>
   <v>       0.48818898       0.48818898       0.52362205 </v>
   <v>       0.48720472       0.48720472       0.52559055 </v>
   <v>       0.48622047       0.48622047       0.52755906 </v>
   <v>       0.48523622       0.48523622       0.52952756 </v>
   <v>       0.48425197       0.48425197       0.53149606 </v>
   <v>       0.48326772       0.48326772       0.53346457 </v>
   <v>       0.48228346       0.48228346       0.53543307 </v>
   <v>       0.48129921       0.48129921       0.53740157 </v>
   <v>       0.48031496       0.48031496       0.53937008 </v>
   <v>       0.47933071       0.47933071       0.54133858 </v>
   <v>       0.47834646       0.47834646       0.54330709 </v>
   <v>       0.47736220       0.47736220       0.54527559 </v>
   <v>       0.47637795       0.47637795       0.54724409 </v>
   <v>       0.47539370       0.47539370       0.54921260 </v>
   <v>       0.47440945       0.47440945       0.55118110 </v>
   <v>       0.47342520       0.47342520       0.55314961 </v>
   <v>       0.47244094       0.47244094       0.55511811 </v>
   <v>       0.47145669       0.47145669       0.55708661 </v>
   <v>       0.47047244       0.47047244       0.55905512 </v>
   <v>       0.46948819       0.46948819       0.56102362 </v>
   <v>       0.46850394       0.46850394       0.56299213 </v>
   <v>       0.46751969       0.46751969       0.56496063 </v>
   <v>       0.46653543       0.46653543       0.56692913 </v>
   <v>       0.46555118       0.46555118       0.56889764 </v>
   <v>       0.46456693       0.46456693       0.57086614 </v>
   <v>       0.46358268       0.46358268       0.57283465 </v>
   <v>       0.46259843       0.46259843       0.57480315 </v>
   <v>       0.46161417       0.46161417       0.57677165 </v>
   <v>       0.46062992       0.46062992       0.57874016 </v>
   <v>       0.45964567       0.45964567       0.58070866 </v>
   <v>       0.45866142       0.45866142       0.58267717 </v>
   <v>       0.45767717       0.45767717       0.58464567 </v>
   <v>       0.45669291       0.45669291       0.58661417 </v>
   <v>       0.45570866       0.45570866       0.58858268 </v>
   <v>       0.45472441       0.45472441       0.59055118 </v>
   <v>       0.45374016       0.45374016       0.59251969 </v>
   <v>       0.45275591       0.45275591       0.59448819 </v>
   <v>       0.45177165       0.45177165       0.59645669 </v>
   <v>       0.45078740       0.45078740       0.59842520 </v>
   <v>       0.44980315       0.44980315       0.60039370 </v>
   <v>       0.44881890       0.44881890       0.60236220 </v>
   <v>       0.44783465       0.44783465       0.60433071 </v>
   <v>       0.44685039       0.44685039       0.60629921 </v>
   <v>       0.44586614       0.44586614       0.60826772 </v>
   <v>       0.44488189       0.44488189       0.61023622 </v>
   <v>       0.44389764       0.44389764       0.61220472 </v>
   <v>       0.44291339       0.44291339       0.61417323 </v>
   <v>       0.44192913       0.44192913       0.61614173 </v>
   <v>       0.44094488       0.44094488       0.61811024 </v>
   <v>       0.43996063       0.43996063       0.62007874 </v>
   <v>       0.43897638       0.43897638       0.62204724 </v>
   <v>       0.43799213       0.43799213       0.62401575 </v>
   <v>       0.43700787       0.43700787       0.62598425 </v>
   <v>       0.43602362       0.43602362       0.62795276 </v>
   <v>       0.43503937       0.43503937       0.62992126 </v>
   <v>       0.43405512       0.43405512       0.63188976 </v>
   <v>       0.43307087       0.43307087       0.63385827 </v>
   <v>       0.43208661       0.43208661       0.63582677 </v>
   <v>       0.43110236       0.43110236       0.63779528 </v>
   <v>       0.43011811       0.43011811       0.63976378 </v>
   <v>       0.42913386       0.42913386       0.64173228 </v>
   <v>       0.42814961       0.42814961       0.64370079 </v>
   <v>       0.42716535       0.42716535       0.64566929 </v>
   <v>       0.42618110       0.42618110       0.64763780 </v>
   <v>       0.42519685       0.42519685       0.64960630 </v>
   <v>       0.42421260       0.42421260       0.65157480 </v>
   <v>       0.42322835       0.42322835       0.65354331 </v>
   <v>       0.42224409       0.42224409       0.65551181 </v>
   <v>       0.42125984       0.42125984       0.65748031 </v>
   <v>       0.42027559       0.42027559       0.65944882 </v>
   <v>       0.41929134       0.41929134       0.66141732 </v>
   <v>       0.41830709       0.41830709       0.66338583 </v>
   <v>       0.41732283       0.41732283       0.66535433 </v>
   <v>       0.41633858       0.41633858       0.66732283 </v>
   <v>       0.41535433       0.41535433       0.66929134 </v>
   <v>       0.41437008       0.41437008       0.67125984 </v>
   <v>       0.41338583       0.41338583       0.67322835 </v>
   <v>       0.41240157       0.41240157       0.67519685 </v>
   <v>       0.41141732       0.41141732       0.67716535 </v>
   <v>       0.41043307       0.41043307       0.67913386 </v>
   <v>       0.40944882       0.40944882       0.68110236 </v>
   <v>       0.40846457       0.40846457       0.68307087 </v>
   <v>       0.40748031       0.40748031       0.68503937 </v>
   <v>       0.40649606       0.40649606       0.68700787 </v>
   <v>       0.40551181       0.40551181       0.68897638 </v>
   <v>       0.40452756       0.40452756       0.69094488 </v>
   <v>       0.40354331       0.40354331       0.69291339 </v>
   <v>       0.40255906       0.40255906       0.69488189 </v>
   <v>       0.40157480       0.40157480       0.69685039 </v>
   <v>       0.40059055       0.40059055       0.69881890 </v>
   <v>       0.39960630       0.39960630       0.70078740 </v>
   <v>       0.39862205       0.39862205       0.70275591 </v>
   <v>       0.39763780       0.39763780       0.70472441 </v>
   <v>       0.39665354       0.39665354       0.70669291 </v>
   <v>       0.39566929       0.39566929       0.70866142 </v>
   <v>       0.39468504       0.39468504       0.71062992 </v>
   <v>       0.39370079       0.39370079       0.71259843 </v>
   <v>       0.39271654       0.39271654       0.71456693 </v>
   <v>       0.39173228       0.39173228       0.71653543 </v>
   <v>       0.39074803       0.39074803       0.71850394 </v>
   <v>       0.38976378       0.38976378       0.72047244 </v>
   <v>       0.38877953       0.38877953       0.72244094 </v>
   <v>       0.38779528       0.38779528       0.72440945 </v>
   <v>       0.38681102       0.38681102       0.72637795 </v>
   <v>       0.38582677       0.38582677       0.72834646 </v>
   <v>       0.38484252       0.38484252       0.73031496 </v>
   <v>       0.38385827       0.38385827       0.73228346 </v>
   <v>       0.38287402       0.38287402       0.73425197 </v>
   <v>       0.38188976       0.38188976       0.73622047 </v>
   <v>       0.38090551       0.38090551       0.73818898 </v>
   <v>       0.37992126       0.37992126       0.74015748 </v>
   <v>       0.37893701       0.37893701       0.74212598 </v>
   <v>       0.37795276       0.37795276       0.74409449 </v>
   <v>       0.37696850       0.37696850       0.74606299 </v>
   <v>       0.37598425       0.37598425       0.74803150 </v>
   <v>       0.37500000       0.37500000       0.75000000 </v>
   <v>       0.62500000       0.25000000       0.62500000 </v>
   <v>       0.62401575       0.24803150       0.62401575 </v>
   <v>       0.62303150       0.24606299       0.62303150 </v>
   <v>       0.62204724       0.24409449       0.62204724 </v>
   <v>       0.62106299       0.24212598       0.62106299 </v>
   <v>       0.62007874       0.24015748       0.62007874 </v>
   <v>       0.61909449       0.23818898       0.61909449 </v>
   <v>       0.61811024       0.23622047       0.61811024 </v>
   <v>       0.61712598       0.23425197       0.61712598 </v>
   <v>       0.61614173       0.23228346       0.61614173 </v>
   <v>       0.61515748       0.23031496       0.61515748 </v>
   <v>       0.61417323       0.22834646       0.61417323 </v>
   <v>       0.61318898       0.22637795       0.61318898 </v>
   <v>       0.61220472       0.22440945       0.61220472 </v>
   <v>       0.61122047       0.22244094       0.61122047 </v>
   <v>       0.61023622       0.22047244       0.61023622 </v>
   <v>       0.60925197       0.21850394       0.60925197 </v>
   <v>       0.60826772       0.21653543       0.60826772 </v>
   <v>       0.60728346       0.21456693       0.60728346 </v>
   <v>       0.60629921       0.21259843       0.60629921 </v>
   <v>       0.60531496       0.21062992       0.60531496 </v>
   <v>       0.60433071       0.20866142       0.60433071 </v>
   <v>       0.60334646       0.20669291       0.60334646 </v>
   <v>       0.60236220       0.20472441       0.60236220 </v>
   <v>       0.60137795       0.20275591       0.60137795 </v>
   <v>       0.60039370       0.20078740       0.60039370 </v>
   <v>       0.59940945       0.19881890       0.59940945 </v>
   <v>       0.59842520       0.19685039       0.59842520 </v>
   <v>       0.59744094       0.19488189       0.59744094 </v>
   <v>       0.59645669       0.19291339       0.59645669 </v>
   <v>       0.59547244       0.19094488       0.59547244 </v>
   <v>       0.59448819       0.18897638       0.59448819 </v>
   <v>       0.59350394       0.18700787       0.59350394 </v>
   <v>       0.59251969       0.18503937       0.59251969 </v>
   <v>       0.59153543       0.18307087       0.59153543 </v>
   <v>       0.59055118       0.18110236       0.59055118 </v>
   <v>       0.58956693       0.17913386       0.58956693 </v>
   <v>       0.58858268       0.17716535       0.58858268 </v>
   <v>       0.58759843       0.17519685       0.58759843 </v>
   <v>       0.58661417       0.17322835       0.58661417 </v>
   <v>       0.58562992       0.17125984       0.58562992 </v>
   <v>       0.58464567       0.16929134       0.58464567 </v>
   <v>       0.58366142       0.16732283       0.58366142 </v>
   <v>       0.58267717       0.16535433       0.58267717 </v>
   <v>       0.58169291       0.16338583       0.58169291 </v>
   <v>       0.58070866       0.16141732       0.58070866 </v>
   <v>       0.57972441       0.15944882       0.57972441 </v>
   <v>       0.57874016       0.15748031       0.57874016 </v>
   <v>       0.57775591       0.15551181       0.57775591 </v>
   <v>       0.57677165       0.15354331       0.57677165 </v>
   <v>       0.57578740       0.15157480       0.57578740 </v>
   <v>       0.57480315       0.14960630       0.57480315 </v>
   <v>       0.57381890       0.14763780       0.57381890 </v>
   <v>       0.57283465       0.14566929       0.57283465 </v>
   <v>       0.57185039       0.14370079       0.57185039 </v>
   <v>       0.57086614       0.14173228       0.57086614 </v>
   <v>       0.56988189       0.13976378       0.56988189 </v>
   <v>       0.56889764       0.13779528       0.56889764 </v>
   <v>       0.56791339       0.13582677       0.56791339 </v>
   <v>       0.56692913       0.13385827       0.56692913 </v>
   <v>       0.56594488       0.13188976       0.56594488 </v>
   <v>       0.56496063       0.12992126       0.56496063 </v>
   <v>       0.56397638       0.12795276       0.56397638 </v>
   <v>       0.56299213       0.12598425       0.56299213 </v>
   <v>       0.56200787       0.12401575       0.56200787 </v>
   <v>       0.56102362       0.12204724       0.56102362 </v>
   <v>       0.56003937       0.12007874       0.56003937 </v>
   <v>       0.55905512       0.11811024       0.55905512 </v>
   <v>       0.55807087       0.11614173       0.55807087 </v>
   <v>       0.55708661       0.11417323       0.55708661 </v>
   <v>       0.55610236       0.11220472       0.55610236 </v>
   <v>       0.55511811       0.11023622       0.55511811 </v>
   <v>       0.55413386       0.10826772       0.55413386 </v>
   <v>       0.55314961       0.10629921       0.55314961 </v>
   <v>       0.55216535       0.10433071       0.55216535 </v>
   <v>       0.55118110       0.10236220       0.55118110 </v>
   <v>       0.55019685       0.10039370       0.55019685 </v>
   <v>       0.54921260       0.09842520       0.54921260 </v>
   <v>       0.54822835       0.09645669       0.54822835 </v>
   <v>       0.54724409       0.09448819       0.54724409 </v>
   <v>       0.54625984       0.09251969       0.54625984 </v>
   <v>       0.54527559       0.09055118       0.54527559 </v>
   <v>       0.54429134       0.08858268       0.54429134 </v>
[...]
       <r>  43.4182  0.0000</r>
       <r>  43.5127  0.0000</r>
       <r>  44.6851  0.0000</r>
       <r>  45.0247  0.0000</r>
       <r>  45.4190  0.0000</r>
       <r>  45.8909  0.0000</r>
      </set>
      <set comment="kpoint 1266">
       <r>  -2.1456  1.0000</r>
       <r>  -2.1356  1.0000</r>
       <r>   2.7645  1.0000</r>
       <r>   2.8134  1.0000</r>
       <r>   6.3669  0.0000</r>
       <r>   6.4264  0.0000</r>
       <r>  15.4717  0.0000</r>
       <r>  15.5009  0.0000</r>
       <r>  16.4058  0.0000</r>
       <r>  16.4358  0.0000</r>
       <r>  18.1564  0.0000</r>
       <r>  18.1611  0.0000</r>
       <r>  18.4261  0.0000</r>
       <r>  18.5079  0.0000</r>
       <r>  24.1612  0.0000</r>
       <r>  24.2330  0.0000</r>
       <r>  25.1492  0.0000</r>
       <r>  25.1906  0.0000</r>
       <r>  25.6548  0.0000</r>
       <r>  25.7756  0.0000</r>
       <r>  26.8859  0.0000</r>
       <r>  26.9644  0.0000</r>
       <r>  30.7017  0.0000</r>
       <r>  30.8048  0.0000</r>
       <r>  34.7113  0.0000</r>
       <r>  34.8224  0.0000</r>
       <r>  38.8992  0.0000</r>
       <r>  39.4152  0.0000</r>
       <r>  39.5812  0.0000</r>
       <r>  40.0254  0.0000</r>
       <r>  40.8292  0.0000</r>
       <r>  41.0438  0.0000</r>
       <r>  43.4165  0.0000</r>
       <r>  43.4988  0.0000</r>
       <r>  44.6936  0.0000</r>
       <r>  44.9918  0.0000</r>
       <r>  45.4669  0.0000</r>
       <r>  45.8900  0.0000</r>
      </set>
      <set comment="kpoint 1267">
       <r>  -2.1452  1.0000</r>
       <r>  -2.1366  1.0000</r>
       <r>   2.7704  1.0000</r>
       <r>   2.8127  1.0000</r>
       <r>   6.3661  0.0000</r>
       <r>   6.4175  0.0000</r>
       <r>  15.4810  0.0000</r>
       <r>  15.5063  0.0000</r>
       <r>  16.4201  0.0000</r>
       <r>  16.4463  0.0000</r>
       <r>  18.1465  0.0000</r>
       <r>  18.1508  0.0000</r>
       <r>  18.4208  0.0000</r>
       <r>  18.4921  0.0000</r>
       <r>  24.1789  0.0000</r>
       <r>  24.2423  0.0000</r>
       <r>  25.1514  0.0000</r>
       <r>  25.1875  0.0000</r>
       <r>  25.6527  0.0000</r>
       <r>  25.7584  0.0000</r>
       <r>  26.8832  0.0000</r>
       <r>  26.9514  0.0000</r>
       <r>  30.7176  0.0000</r>
       <r>  30.8071  0.0000</r>
       <r>  34.7113  0.0000</r>
       <r>  34.8076  0.0000</r>
       <r>  38.9419  0.0000</r>
       <r>  39.4147  0.0000</r>
       <r>  39.5799  0.0000</r>
       <r>  39.9908  0.0000</r>
       <r>  40.8597  0.0000</r>
       <r>  41.0464  0.0000</r>
       <r>  43.4150  0.0000</r>
       <r>  43.4859  0.0000</r>
       <r>  44.7015  0.0000</r>
       <r>  44.9605  0.0000</r>
       <r>  45.5140  0.0000</r>
       <r>  45.8894  0.0000</r>
      </set>
      <set comment="kpoint 1268">
       <r>  -2.1448  1.0000</r>
       <r>  -2.1375  1.0000</r>
       <r>   2.7759  1.0000</r>
       <r>   2.8120  1.0000</r>
       <r>   6.3653  0.0000</r>
       <r>   6.4092  0.0000</r>
       <r>  15.4896  0.0000</r>
       <r>  15.5113  0.0000</r>
       <r>  16.4336  0.0000</r>
       <r>  16.4561  0.0000</r>
       <r>  18.1373  0.0000</r>
       <r>  18.1411  0.0000</r>
       <r>  18.4160  0.0000</r>
       <r>  18.4773  0.0000</r>
       <r>  24.1957  0.0000</r>
       <r>  24.2508  0.0000</r>
       <r>  25.1535  0.0000</r>
       <r>  25.1845  0.0000</r>
       <r>  25.6508  0.0000</r>
       <r>  25.7421  0.0000</r>
       <r>  26.8807  0.0000</r>
       <r>  26.9392  0.0000</r>
       <r>  30.7326  0.0000</r>
       <r>  30.8092  0.0000</r>
       <r>  34.7113  0.0000</r>
       <r>  34.7937  0.0000</r>
       <r>  38.9843  0.0000</r>
       <r>  39.4142  0.0000</r>
       <r>  39.5787  0.0000</r>
       <r>  39.9558  0.0000</r>
       <r>  40.8884  0.0000</r>
       <r>  41.0488  0.0000</r>
       <r>  43.4135  0.0000</r>
       <r>  43.4739  0.0000</r>
       <r>  44.7090  0.0000</r>
       <r>  44.9312  0.0000</r>
       <r>  45.5592  0.0000</r>
       <r>  45.8884  0.0000</r>
      </set>
      <set comment="kpoint 1269">
       <r>  -2.1445  1.0000</r>
       <r>  -2.1383  1.0000</r>
       <r>   2.7810  1.0000</r>
       <r>   2.8114  1.0000</r>
       <r>   6.3646  0.0000</r>
       <r>   6.4015  0.0000</r>
       <r>  15.4976  0.0000</r>
       <r>  15.5160  0.0000</r>
       <r>  16.4461  0.0000</r>
       <r>  16.4653  0.0000</r>
       <r>  18.1288  0.0000</r>
       <r>  18.1321  0.0000</r>
       <r>  18.4115  0.0000</r>
       <r>  18.4634  0.0000</r>
       <r>  24.2115  0.0000</r>
       <r>  24.2588  0.0000</r>
       <r>  25.1555  0.0000</r>
       <r>  25.1818  0.0000</r>
       <r>  25.6490  0.0000</r>
       <r>  25.7268  0.0000</r>
       <r>  26.8785  0.0000</r>
       <r>  26.9279  0.0000</r>
       <r>  30.7464  0.0000</r>
       <r>  30.8111  0.0000</r>
       <r>  34.7114  0.0000</r>
       <r>  34.7809  0.0000</r>
       <r>  39.0266  0.0000</r>
       <r>  39.4138  0.0000</r>
       <r>  39.5776  0.0000</r>
       <r>  39.9204  0.0000</r>
       <r>  40.9152  0.0000</r>
       <r>  41.0511  0.0000</r>
       <r>  43.4121  0.0000</r>
       <r>  43.4628  0.0000</r>
       <r>  44.7159  0.0000</r>
       <r>  44.9039  0.0000</r>
       <r>  45.6036  0.0000</r>
       <r>  45.8883  0.0000</r>
      </set>
      <set comment="kpoint 1270">
       <r>  -2.1441  1.0000</r>
       <r>  -2.1391  1.0000</r>
       <r>   2.7857  1.0000</r>
       <r>   2.8109  1.0000</r>
       <r>   6.3640  0.0000</r>
       <r>   6.3945  0.0000</r>
       <r>  15.5050  0.0000</r>
       <r>  15.5202  0.0000</r>
       <r>  16.4578  0.0000</r>
       <r>  16.4737  0.0000</r>
       <r>  18.1210  0.0000</r>
       <r>  18.1238  0.0000</r>
       <r>  18.4074  0.0000</r>
       <r>  18.4507  0.0000</r>
       <r>  24.2262  0.0000</r>
       <r>  24.2660  0.0000</r>
       <r>  25.1574  0.0000</r>
       <r>  25.1793  0.0000</r>
       <r>  25.6474  0.0000</r>
       <r>  25.7125  0.0000</r>
       <r>  26.8764  0.0000</r>
       <r>  26.9175  0.0000</r>
       <r>  30.7592  0.0000</r>
       <r>  30.8129  0.0000</r>
       <r>  34.7114  0.0000</r>
       <r>  34.7690  0.0000</r>
       <r>  39.0685  0.0000</r>
       <r>  39.4133  0.0000</r>
       <r>  39.5766  0.0000</r>
       <r>  39.8847  0.0000</r>
       <r>  40.9400  0.0000</r>
       <r>  41.0531  0.0000</r>
       <r>  43.4108  0.0000</r>
       <r>  43.4527  0.0000</r>
       <r>  44.7222  0.0000</r>
       <r>  44.8785  0.0000</r>
       <r>  45.6452  0.0000</r>
       <r>  45.8878  0.0000</r>
      </set>
      <set comment="kpoint 1271">
       <r>  -2.1439  1.0000</r>
       <r>  -2.1398  1.0000</r>
       <r>   2.7899  1.0000</r>
       <r>   2.8103  1.0000</r>
       <r>   6.3634  0.0000</r>
       <r>   6.3882  0.0000</r>
       <r>  15.5117  0.0000</r>
       <r>  15.5241  0.0000</r>
       <r>  16.4684  0.0000</r>
       <r>  16.4815  0.0000</r>
       <r>  18.1138  0.0000</r>
       <r>  18.1163  0.0000</r>
       <r>  18.4036  0.0000</r>
       <r>  18.4390  0.0000</r>
       <r>  24.2397  0.0000</r>
       <r>  24.2726  0.0000</r>
       <r>  25.1591  0.0000</r>
       <r>  25.1770  0.0000</r>
       <r>  25.6460  0.0000</r>
       <r>  25.6993  0.0000</r>
       <r>  26.8745  0.0000</r>
       <r>  26.9079  0.0000</r>
       <r>  30.7708  0.0000</r>
       <r>  30.8145  0.0000</r>
       <r>  34.7114  0.0000</r>
       <r>  34.7583  0.0000</r>
       <r>  39.1101  0.0000</r>
       <r>  39.4130  0.0000</r>
       <r>  39.5757  0.0000</r>
       <r>  39.8488  0.0000</r>
       <r>  40.9627  0.0000</r>
       <r>  41.0550  0.0000</r>
       <r>  43.4097  0.0000</r>
       <r>  43.4436  0.0000</r>
       <r>  44.7280  0.0000</r>
       <r>  44.8553  0.0000</r>
       <r>  45.6853  0.0000</r>
       <r>  45.8876  0.0000</r>
      </set>
      <set comment="kpoint 1272">
       <r>  -2.1436  1.0000</r>
       <r>  -2.1404  1.0000</r>
       <r>   2.7937  1.0000</r>
       <r>   2.8099  1.0000</r>
       <r>   6.3628  0.0000</r>
       <r>   6.3825  0.0000</r>
       <r>  15.5177  0.0000</r>
       <r>  15.5275  0.0000</r>
       <r>  16.4780  0.0000</r>
       <r>  16.4884  0.0000</r>
       <r>  18.1074  0.0000</r>
       <r>  18.1094  0.0000</r>
       <r>  18.4003  0.0000</r>
       <r>  18.4284  0.0000</r>
       <r>  24.2521  0.0000</r>
       <r>  24.2784  0.0000</r>
       <r>  25.1608  0.0000</r>
       <r>  25.1750  0.0000</r>
       <r>  25.6447  0.0000</r>
       <r>  25.6872  0.0000</r>
       <r>  26.8728  0.0000</r>
       <r>  26.8994  0.0000</r>
       <r>  30.7813  0.0000</r>
       <r>  30.8159  0.0000</r>
       <r>  34.7114  0.0000</r>
       <r>  34.7486  0.0000</r>
       <r>  39.1514  0.0000</r>
       <r>  39.4126  0.0000</r>
       <r>  39.5749  0.0000</r>
       <r>  39.8126  0.0000</r>
       <r>  40.9832  0.0000</r>
       <r>  41.0566  0.0000</r>
       <r>  43.4086  0.0000</r>
       <r>  43.4354  0.0000</r>
       <r>  44.7332  0.0000</r>
       <r>  44.8343  0.0000</r>
       <r>  45.7226  0.0000</r>
       <r>  45.8860  0.0000</r>
      </set>
      <set comment="kpoint 1273">
       <r>  -2.1434  1.0000</r>
       <r>  -2.1409  1.0000</r>
       <r>   2.7971  1.0000</r>
       <r>   2.8095  1.0000</r>
       <r>   6.3624  0.0000</r>
       <r>   6.3774  0.0000</r>
       <r>  15.5230  0.0000</r>
       <r>  15.5306  0.0000</r>
       <r>  16.4866  0.0000</r>
       <r>  16.4946  0.0000</r>
       <r>  18.1017  0.0000</r>
       <r>  18.1033  0.0000</r>
       <r>  18.3973  0.0000</r>
       <r>  18.4190  0.0000</r>
       <r>  24.2632  0.0000</r>
       <r>  24.2837  0.0000</r>
       <r>  25.1623  0.0000</r>
       <r>  25.1733  0.0000</r>
       <r>  25.6435  0.0000</r>
       <r>  25.6764  0.0000</r>
       <r>  26.8713  0.0000</r>
       <r>  26.8917  0.0000</r>
       <r>  30.7905  0.0000</r>
       <r>  30.8172  0.0000</r>
       <r>  34.7114  0.0000</r>
       <r>  34.7399  0.0000</r>
       <r>  39.1921  0.0000</r>
       <r>  39.4123  0.0000</r>
       <r>  39.5741  0.0000</r>
       <r>  39.7763  0.0000</r>
       <r>  41.0016  0.0000</r>
       <r>  41.0581  0.0000</r>
       <r>  43.4077  0.0000</r>
       <r>  43.4282  0.0000</r>
       <r>  44.7379  0.0000</r>
       <r>  44.8158  0.0000</r>
       <r>  45.7588  0.0000</r>
       <r>  45.9018  0.0000</r>
      </set>
      <set comment="kpoint 1274">
       <r>  -2.1432  1.0000</r>
       <r>  -2.1414  1.0000</r>
       <r>   2.8000  1.0000</r>
       <r>   2.8091  1.0000</r>
       <r>   6.3620  0.0000</r>
       <r>   6.3730  0.0000</r>
       <r>  15.5276  0.0000</r>
       <r>  15.5332  0.0000</r>
       <r>  16.4941  0.0000</r>
       <r>  16.5001  0.0000</r>
       <r>  18.0968  0.0000</r>
       <r>  18.0980  0.0000</r>
       <r>  18.3948  0.0000</r>
       <r>  18.4108  0.0000</r>
       <r>  24.2729  0.0000</r>
       <r>  24.2882  0.0000</r>
       <r>  25.1636  0.0000</r>
       <r>  25.1717  0.0000</r>
       <r>  25.6425  0.0000</r>
       <r>  25.6669  0.0000</r>
       <r>  26.8700  0.0000</r>
       <r>  26.8851  0.0000</r>
       <r>  30.7986  0.0000</r>
       <r>  30.8182  0.0000</r>
       <r>  34.7114  0.0000</r>
       <r>  34.7324  0.0000</r>
       <r>  39.2322  0.0000</r>
       <r>  39.4120  0.0000</r>
       <r>  39.5735  0.0000</r>
       <r>  39.7401  0.0000</r>
       <r>  41.0176  0.0000</r>
       <r>  41.0593  0.0000</r>
       <r>  43.4069  0.0000</r>
       <r>  43.4220  0.0000</r>
       <r>  44.7419  0.0000</r>
       <r>  44.7993  0.0000</r>
       <r>  45.7889  0.0000</r>
       <r>  45.8853  0.0000</r>
      </set>
      <set comment="kpoint 1275">
       <r>  -2.1430  1.0000</r>
       <r>  -2.1418  1.0000</r>
       <r>   2.8025  1.0000</r>
       <r>   2.8089  1.0000</r>
       <r>   6.3616  0.0000</r>
       <r>   6.3693  0.0000</r>
       <r>  15.5316  0.0000</r>
       <r>  15.5355  0.0000</r>
       <r>  16.5005  0.0000</r>
       <r>  16.5047  0.0000</r>
       <r>  18.0926  0.0000</r>
       <r>  18.0934  0.0000</r>
       <r>  18.3926  0.0000</r>
       <r>  18.4037  0.0000</r>
       <r>  24.2813  0.0000</r>
       <r>  24.2920  0.0000</r>
       <r>  25.1648  0.0000</r>
       <r>  25.1704  0.0000</r>
       <r>  25.6417  0.0000</r>
       <r>  25.6587  0.0000</r>
       <r>  26.8689  0.0000</r>
       <r>  26.8794  0.0000</r>
       <r>  30.8055  0.0000</r>
       <r>  30.8192  0.0000</r>
       <r>  34.7114  0.0000</r>
       <r>  34.7260  0.0000</r>
       <r>  39.2715  0.0000</r>
       <r>  39.4118  0.0000</r>
       <r>  39.5730  0.0000</r>
       <r>  39.7041  0.0000</r>
       <r>  41.0313  0.0000</r>
       <r>  41.0604  0.0000</r>
       <r>  43.4062  0.0000</r>
       <r>  43.4167  0.0000</r>
       <r>  44.7453  0.0000</r>
       <r>  44.7853  0.0000</r>
       <r>  45.8183  0.0000</r>
       <r>  45.8908  0.0000</r>
      </set>
      <set comment="kpoint 1276">
       <r>  -2.1429  1.0000</r>
       <r>  -2.1421  1.0000</r>
       <r>   2.8045  1.0000</r>
       <r>   2.8086  1.0000</r>
       <r>   6.3614  0.0000</r>
       <r>   6.3663  0.0000</r>
       <r>  15.5348  0.0000</r>
       <r>  15.5373  0.0000</r>
       <r>  16.5058  0.0000</r>
       <r>  16.5085  0.0000</r>
       <r>  18.0892  0.0000</r>
       <r>  18.0897  0.0000</r>
       <r>  18.3908  0.0000</r>
       <r>  18.3980  0.0000</r>
       <r>  24.2882  0.0000</r>
       <r>  24.2951  0.0000</r>
       <r>  25.1657  0.0000</r>
       <r>  25.1694  0.0000</r>
       <r>  25.6410  0.0000</r>
       <r>  25.6520  0.0000</r>
       <r>  26.8680  0.0000</r>
       <r>  26.8748  0.0000</r>
       <r>  30.8112  0.0000</r>
       <r>  30.8199  0.0000</r>
       <r>  34.7114  0.0000</r>
       <r>  34.7208  0.0000</r>
       <r>  39.3094  0.0000</r>
       <r>  39.4116  0.0000</r>
       <r>  39.5726  0.0000</r>
       <r>  39.6688  0.0000</r>
       <r>  41.0426  0.0000</r>
       <r>  41.0613  0.0000</r>
       <r>  43.4056  0.0000</r>
       <r>  43.4123  0.0000</r>
       <r>  44.7481  0.0000</r>
       <r>  44.7738  0.0000</r>
       <r>  45.8436  0.0000</r>
       <r>  45.8883  0.0000</r>
      </set>
      <set comment="kpoint 1277">
       <r>  -2.1428  1.0000</r>
       <r>  -2.1424  1.0000</r>
       <r>   2.8061  1.0000</r>
       <r>   2.8084  1.0000</r>
       <r>   6.3612  0.0000</r>
       <r>   6.3639  0.0000</r>
       <r>  15.5373  0.0000</r>
       <r>  15.5387  0.0000</r>
       <r>  16.5099  0.0000</r>
       <r>  16.5114  0.0000</r>
       <r>  18.0865  0.0000</r>
       <r>  18.0868  0.0000</r>
       <r>  18.3894  0.0000</r>
       <r>  18.3935  0.0000</r>
       <r>  24.2937  0.0000</r>
       <r>  24.2976  0.0000</r>
       <r>  25.1665  0.0000</r>
       <r>  25.1685  0.0000</r>
       <r>  25.6404  0.0000</r>
       <r>  25.6467  0.0000</r>
       <r>  26.8674  0.0000</r>
       <r>  26.8711  0.0000</r>
       <r>  30.8156  0.0000</r>
       <r>  30.8205  0.0000</r>
       <r>  34.7114  0.0000</r>
       <r>  34.7167  0.0000</r>
       <r>  39.3453  0.0000</r>
       <r>  39.4114  0.0000</r>
       <r>  39.5722  0.0000</r>
       <r>  39.6351  0.0000</r>
       <r>  41.0514  0.0000</r>
       <r>  41.0620  0.0000</r>
       <r>  43.4052  0.0000</r>
       <r>  43.4090  0.0000</r>
       <r>  44.7503  0.0000</r>
       <r>  44.7648  0.0000</r>
       <r>  45.8609  0.0000</r>
       <r>  45.8855  0.0000</r>
      </set>
      <set comment="kpoint 1278">
       <r>  -2.1427  1.0000</r>
       <r>  -2.1425  1.0000</r>
       <r>   2.8073  1.0000</r>
       <r>   2.8083  1.0000</r>
       <r>   6.3610  0.0000</r>
       <r>   6.3622  0.0000</r>
       <r>  15.5392  0.0000</r>
       <r>  15.5398  0.0000</r>
       <r>  16.5129  0.0000</r>
       <r>  16.5136  0.0000</r>
       <r>  18.0846  0.0000</r>
       <r>  18.0847  0.0000</r>
       <r>  18.3884  0.0000</r>
       <r>  18.3902  0.0000</r>
       <r>  24.2976  0.0000</r>
       <r>  24.2993  0.0000</r>
       <r>  25.1670  0.0000</r>
       <r>  25.1679  0.0000</r>
       <r>  25.6401  0.0000</r>
       <r>  25.6428  0.0000</r>
       <r>  26.8669  0.0000</r>
       <r>  26.8685  0.0000</r>
       <r>  30.8187  0.0000</r>
       <r>  30.8209  0.0000</r>
       <r>  34.7114  0.0000</r>
       <r>  34.7138  0.0000</r>
       <r>  39.3773  0.0000</r>
       <r>  39.4113  0.0000</r>
       <r>  39.5720  0.0000</r>
       <r>  39.6046  0.0000</r>
       <r>  41.0578  0.0000</r>
       <r>  41.0625  0.0000</r>
       <r>  43.4049  0.0000</r>
       <r>  43.4066  0.0000</r>
       <r>  44.7519  0.0000</r>
       <r>  44.7583  0.0000</r>
       <r>  45.8730  0.0000</r>
       <r>  45.8850  0.0000</r>
      </set>
      <set comment="kpoint 1279">
       <r>  -2.1427  1.0000</r>
       <r>  -2.1427  1.0000</r>
       <r>   2.8080  1.0000</r>
       <r>   2.8082  1.0000</r>
       <r>   6.3609  0.0000</r>
       <r>   6.3612  0.0000</r>
       <r>  15.5402  0.0000</r>
       <r>  15.5404  0.0000</r>
       <r>  16.5147  0.0000</r>
       <r>  16.5148  0.0000</r>
       <r>  18.0834  0.0000</r>
       <r>  18.0834  0.0000</r>
       <r>  18.3878  0.0000</r>
       <r>  18.3883  0.0000</r>
       <r>  24.2999  0.0000</r>
       <r>  24.3004  0.0000</r>
       <r>  25.1674  0.0000</r>
       <r>  25.1676  0.0000</r>
       <r>  25.6398  0.0000</r>
       <r>  25.6405  0.0000</r>
       <r>  26.8666  0.0000</r>
       <r>  26.8670  0.0000</r>
       <r>  30.8206  0.0000</r>
       <r>  30.8212  0.0000</r>
       <r>  34.7114  0.0000</r>
       <r>  34.7120  0.0000</r>
       <r>  39.4016  0.0000</r>
       <r>  39.4113  0.0000</r>
       <r>  39.5719  0.0000</r>
       <r>  39.5812  0.0000</r>
       <r>  41.0616  0.0000</r>
       <r>  41.0628  0.0000</r>
       <r>  43.4047  0.0000</r>
       <r>  43.4051  0.0000</r>
       <r>  44.7528  0.0000</r>
       <r>  44.7544  0.0000</r>
       <r>  45.8817  0.0000</r>
       <r>  45.8857  0.0000</r>
      </set>
      <set comment="kpoint 1280">
       <r>  -2.1427  1.0000</r>
       <r>  -2.1427  1.0000</r>
       <r>   2.8082  1.0000</r>
       <r>   2.8082  1.0000</r>
       <r>   6.3609  0.0000</r>
       <r>   6.3609  0.0000</r>
       <r>  15.5406  0.0000</r>
       <r>  15.5406  0.0000</r>
       <r>  16.5153  0.0000</r>
       <r>  16.5153  0.0000</r>
       <r>  18.0830  0.0000</r>
       <r>  18.0830  0.0000</r>
       <r>  18.3876  0.0000</r>
       <r>  18.3876  0.0000</r>
       <r>  24.3007  0.0000</r>
       <r>  24.3007  0.0000</r>
       <r>  25.1675  0.0000</r>
       <r>  25.1675  0.0000</r>
       <r>  25.6398  0.0000</r>
       <r>  25.6398  0.0000</r>
       <r>  26.8665  0.0000</r>
       <r>  26.8665  0.0000</r>
       <r>  30.8213  0.0000</r>
       <r>  30.8213  0.0000</r>
       <r>  34.7114  0.0000</r>
       <r>  34.7114  0.0000</r>
       <r>  39.4112  0.0000</r>
       <r>  39.4113  0.0000</r>
       <r>  39.5718  0.0000</r>
       <r>  39.5719  0.0000</r>
       <r>  41.0628  0.0000</r>
       <r>  41.0629  0.0000</r>
       <r>  43.4046  0.0000</r>
       <r>  43.4047  0.0000</r>
       <r>  44.7531  0.0000</r>
       <r>  44.7532  0.0000</r>
       <r>  45.8839  0.0000</r>
       <r>  45.8872  0.0000</r>
      </set>
     </set>
    </set>
   </array>
  </eigenvalues>
 </calculation>
 <structure name="finalpos" >
  <crystal>
   <varray name="basis" >
    <v>       0.00000000       2.73332762       2.73332762 </v>
    <v>       2.73332762       0.00000000       2.73332762 </v>
    <v>       2.73332762       2.73332762       0.00000000 </v>
   </varray>
   <i name="volume">     40.84181808</i>
   <varray name="rec_basis" >
    <v>      -0.18292721       0.18292721       0.18292721 </v>
    <v>       0.18292721      -0.18292721       0.18292721 </v>
    <v>       0.18292721       0.18292721      -0.18292721 </v>
   </varray>
  </crystal>
  <varray name="positions" >
   <v>       0.00000000       0.00000000       0.00000000 </v>
   <v>       0.75000000       0.75000000       0.75000000 </v>
  </varray>
 </structure>
</modeling>
