 vasp.5.4.1 24Jun15 (build Dec 04 2015 16:58:54) complex

 executed on           IFC91_ompi date 2018.01.13  19:33:20
 running on   32 total cores
 distrk:  each k-point on   32 cores,    1 groups
 distr:  one band on NCORES_PER_BAND=   4 cores,    8 groups


--------------------------------------------------------------------------------------------------------


 INCAR:
 POTCAR:   PAW_PBE Cu 05Jan2001
 POTCAR:   PAW_PBE Rh 06Sep2000

 -----------------------------------------------------------------------------
|                                                                             |
|  ADVICE TO THIS USER RUNNING 'VASP/VAMP'   (HEAR YOUR MASTER'S VOICE ...):  |
|                                                                             |
|      You have switched on vdW-DFT.                                          |
|      This routine was written and supplied by Jiri Klimes.                  |
|      We recommed that you carefully read and cite the following             |
|      publication                                                            |
|      J. Klimes, D.R. Bowler, A. Michelides                                  |
|        J. Phys.: Cond Matt. 22 022201 (2010)                                |
|      J. Klimes, D.R. Bowler, A. Michelides                                  |
|        Phys. Rev. B. 83, 195131 (2011)                                      |
|      and references therein.                                                |
|                                                                             |
 -----------------------------------------------------------------------------

 POTCAR:   PAW_PBE Cu 05Jan2001
  local pseudopotential read in
  partial core-charges read in
  atomic valenz-charges read in
  non local Contribution for L=           2  read in
    real space projection operators read in
  non local Contribution for L=           2  read in
    real space projection operators read in
  non local Contribution for L=           0  read in
    real space projection operators read in
  non local Contribution for L=           0  read in
    real space projection operators read in
  non local Contribution for L=           1  read in
    real space projection operators read in
  non local Contribution for L=           1  read in
    real space projection operators read in
    PAW grid and wavefunctions read in

   number of l-projection  operators is LMAX  =           6
   number of lm-projection operators is LMMAX =          18

 POTCAR:   PAW_PBE Rh 06Sep2000
  local pseudopotential read in
  partial core-charges read in
  atomic valenz-charges read in
  non local Contribution for L=           2  read in
    real space projection operators read in
  non local Contribution for L=           2  read in
    real space projection operators read in
  non local Contribution for L=           0  read in
    real space projection operators read in
  non local Contribution for L=           0  read in
    real space projection operators read in
  non local Contribution for L=           1  read in
    real space projection operators read in
  non local Contribution for L=           1  read in
    real space projection operators read in
    PAW grid and wavefunctions read in

   number of l-projection  operators is LMAX  =           6
   number of lm-projection operators is LMMAX =          18

 Optimization of the real space projectors (new method)

 maximal supplied QI-value         = 16.25
 optimisation between [QCUT,QGAM] = [ 10.24, 20.48] = [ 29.35,117.42] Ry
 Optimized for a Real-space Cutoff    1.55 Angstroem

   l    n(q)    QCUT    max X(q) W(low)/X(q) W(high)/X(q)  e(spline)
   2      9    10.239     4.977    0.78E-05    0.33E-04    0.53E-07
   2      9    10.239    13.467    0.10E-03    0.30E-03    0.20E-06
   0     10    10.239    13.303    0.19E-04    0.19E-05    0.69E-08
   0     10    10.239    44.613    0.65E-04    0.24E-05    0.85E-07
   1      9    10.239     5.276    0.25E-04    0.19E-04    0.22E-07
   1      9    10.239     7.322    0.84E-04    0.97E-04    0.11E-06
 Optimization of the real space projectors (new method)

 maximal supplied QI-value         = 15.12
 optimisation between [QCUT,QGAM] = [ 10.13, 20.41] = [ 28.73,116.64] Ry
 Optimized for a Real-space Cutoff    1.70 Angstroem

   l    n(q)    QCUT    max X(q) W(low)/X(q) W(high)/X(q)  e(spline)
   2      9    10.129     3.971    0.16E-04    0.22E-05    0.64E-07
   2      9    10.129    27.544    0.10E-03    0.24E-04    0.29E-06
   0     10    10.129    20.781    0.20E-04    0.19E-06    0.11E-07
   0     10    10.129    69.103    0.45E-04    0.21E-04    0.91E-07
   1     10    10.129     7.864    0.65E-05    0.54E-05    0.31E-07
   1     10    10.129    10.811    0.30E-04    0.39E-05    0.12E-06

 -----------------------------------------------------------------------------
|                                                                             |
|  ADVICE TO THIS USER RUNNING 'VASP/VAMP'   (HEAR YOUR MASTER'S VOICE ...):  |
|                                                                             |
|      You enforced a specific xc-type in the INCAR file,                     |
|      a different type was found on the POTCAR file                          |
|          I HOPE YOU KNOW, WHAT YOU ARE  DOING                               |
|                                                                             |
 -----------------------------------------------------------------------------

 PAW_PBE Cu 05Jan2001                   :
 energy of atom  1       EATOM=-1390.9800
 kinetic energy error for atom=    0.0117 (will be added to EATOM!!)
 PAW_PBE Rh 06Sep2000                   :
 energy of atom  2       EATOM= -616.5493
 kinetic energy error for atom=    0.0043 (will be added to EATOM!!)


 POSCAR: POSCAR file for Cu_3x3x5.xsd | Created o
  positions in direct lattice
  No initial velocities read in
 exchange correlation table for  LEXCH =       43
   RHO(1)=    0.500       N(1)  =     2000
   RHO(2)=  100.500       N(2)  =     4000

 VTST: version 3.1, (03/28/14)

 CHAIN: initializing optimizer

 OPT: Using VASP Conjugate-Gradient optimizer
 CHAIN: Read ICHAIN            0

 POSCAR: POSCAR file for Cu_3x3x5.xsd | Created o
  positions in direct lattice
  No initial velocities read in



--------------------------------------------------------------------------------------------------------


 ion  position               nearest neighbor table
   1  0.222  0.111  0.000-   2 2.55   7 2.55   5 2.55   9 2.55   4 2.55   3 2.55  10 2.55  14 2.55
                            13 2.55
   2  0.222  0.444  0.000-   1 2.55   8 2.55   7 2.55   3 2.55   5 2.55   6 2.55  11 2.55  14 2.55
                            15 2.55
   3  0.222  0.778  0.000-   9 2.55   8 2.55   6 2.55   1 2.55   2 2.55   4 2.55  12 2.55  13 2.55
                            15 2.55
   4  0.556  0.111  0.000-   5 2.55   8 2.55   6 2.55   7 2.55   1 2.55   3 2.55  13 2.55  16 2.55
                            17 2.55
   5  0.556  0.444  0.000-   4 2.55   1 2.55  17 2.55   6 2.55   8 2.55   2 2.55   9 2.55  14 2.55
                            18 2.55
   6  0.556  0.778  0.000-   3 2.55   4 2.55   5 2.55   9 2.55   7 2.55   2 2.55  15 2.55  16 2.55
                            18 2.55
   7  0.889  0.111  0.000-   1 2.55   8 2.55   2 2.55   4 2.55   9 2.55   6 2.55  10 2.55  11 2.55
                            16 2.55
   8  0.889  0.444  0.000-   2 2.55   7 2.55   4 2.55   3 2.55  11 2.55   9 2.55   5 2.55  12 2.55
                            17 2.55
   9  0.889  0.778  0.000-   3 2.55   1 2.55   6 2.55   7 2.55   8 2.55   5 2.55  10 2.55  12 2.55
                            18 2.55
  10  0.000  0.000  0.114-  21 2.53  38 2.54  44 2.54  16 2.55  11 2.55  12 2.55  13 2.55  18 2.55
                            14 2.55   1 2.55   7 2.55   9 2.55
  11  0.000  0.333  0.114-  21 2.53  30 2.54  27 2.54  12 2.55  15 2.55   8 2.55  14 2.55  10 2.55
                            17 2.55  16 2.55   2 2.55   7 2.55
  12  0.000  0.667  0.114-  35 2.54  30 2.54  38 2.54  11 2.55  17 2.55  15 2.55  10 2.55  18 2.55
                            13 2.55   3 2.55   8 2.55   9 2.55
  13  0.333  0.000  0.114-  24 2.53  38 2.54  41 2.54  16 2.55  17 2.55  15 2.55  10 2.55  14 2.55
                            12 2.55   4 2.55   3 2.55   1 2.55
  14  0.333  0.333  0.114-  21 2.53  32 2.53  24 2.53  17 2.55  15 2.55  18 2.55  11 2.55  13 2.55
                            10 2.55   1 2.55   2 2.55   5 2.55
  15  0.333  0.667  0.114-  32 2.53  30 2.54  41 2.54  18 2.55  14 2.55  11 2.55  16 2.55  12 2.55
                            13 2.55   6 2.55   2 2.55   3 2.55
  16  0.667  0.000  0.114-  41 2.54  44 2.54  27 2.54  13 2.55  15 2.55  10 2.55  17 2.55  18 2.55
                            11 2.55   6 2.55   4 2.55   7 2.55
  17  0.667  0.333  0.114-  24 2.53  35 2.54  27 2.54  18 2.55  14 2.55  13 2.55  12 2.55   5 2.55
                            11 2.55  16 2.55   4 2.55   8 2.55
  18  0.667  0.667  0.114-  32 2.53  35 2.54  44 2.54  17 2.55  15 2.55  14 2.55  12 2.55  16 2.55
                            10 2.55   6 2.55   5 2.55   9 2.55
  19  0.998  0.998  0.452-  42 2.51  43 2.53  26 2.54  36 2.54  25 2.54  20 2.55  22 2.57  45 2.58
                            28 2.58
  20  0.223  0.112  0.339-  38 2.53  24 2.54  21 2.54  31 2.55  29 2.55  23 2.55  26 2.55  37 2.55
                            43 2.55  19 2.55  22 2.56  45 2.58
  21  0.111  0.222  0.226-  10 2.53  11 2.53  14 2.53  20 2.54  29 2.54  26 2.55  38 2.55  44 2.55
                            27 2.55  30 2.55  32 2.56  24 2.56
  22  0.334  0.998  0.452-  39 2.51  37 2.53  23 2.54  36 2.54  25 2.54  20 2.56  19 2.57  45 2.57
                            33 2.58
  23  0.556  0.112  0.339-  25 2.53  22 2.54  27 2.54  33 2.54  41 2.54  24 2.55  20 2.55  31 2.55
                            37 2.55  34 2.55  40 2.55  26 2.55
  24  0.445  0.222  0.226-  17 2.53  13 2.53  14 2.53  20 2.54  31 2.54  23 2.55  41 2.55  38 2.55
                            27 2.55  35 2.55  21 2.56  32 2.56
  25  0.667  0.001  0.452-  26 2.53  23 2.53  40 2.53  42 2.54  33 2.54  19 2.54  28 2.54  39 2.54
                            22 2.54
  26  0.890  0.112  0.339-  25 2.53  19 2.54  27 2.54  28 2.54  44 2.54  21 2.55  29 2.55  20 2.55
                            34 2.55  43 2.55  23 2.55  40 2.55
  27  0.778  0.222  0.227-  34 2.53  26 2.54  23 2.54  11 2.54  17 2.54  16 2.54  24 2.55  21 2.55
                            30 2.55  35 2.55  41 2.55  44 2.55
  28  0.998  0.334  0.452-  33 2.51  34 2.53  36 2.54  26 2.54  25 2.54  29 2.56  39 2.57  45 2.57
                            19 2.58
  29  0.223  0.445  0.339-  30 2.53  32 2.54  21 2.54  20 2.55  31 2.55  26 2.55  40 2.55  37 2.55
                            34 2.55  28 2.56  39 2.56  45 2.58
  30  0.112  0.555  0.227-  29 2.53  34 2.54  37 2.54  15 2.54  11 2.54  12 2.54  32 2.55  21 2.55
                            27 2.55  41 2.55  35 2.56  38 2.56
  31  0.556  0.445  0.339-  35 2.53  32 2.54  24 2.54  20 2.55  29 2.55  23 2.55  40 2.55  34 2.55
                            43 2.55  42 2.56  33 2.56  45 2.58
  32  0.445  0.556  0.226-  18 2.53  15 2.53  14 2.53  31 2.54  29 2.54  40 2.55  30 2.55  44 2.55
                            41 2.55  35 2.55  21 2.56  24 2.56
  33  0.670  0.334  0.452-  28 2.51  34 2.53  23 2.54  36 2.54  25 2.54  31 2.56  42 2.57  45 2.57
                            22 2.58
  34  0.889  0.445  0.339-  33 2.53  28 2.53  27 2.53  36 2.53  30 2.54  35 2.54  26 2.55  23 2.55
                            43 2.55  37 2.55  31 2.55  29 2.55
  35  0.778  0.555  0.227-  31 2.53  43 2.54  34 2.54  18 2.54  17 2.54  12 2.54  24 2.55  32 2.55
                            27 2.55  44 2.55  30 2.56  38 2.56
  36  0.001  0.667  0.452-  37 2.53  43 2.53  34 2.53  42 2.54  39 2.54  22 2.54  19 2.54  33 2.54
                            28 2.54
  37  0.223  0.778  0.339-  39 2.53  22 2.53  36 2.53  41 2.53  38 2.54  30 2.54  23 2.55  40 2.55
                            43 2.55  34 2.55  20 2.55  29 2.55
  38  0.112  0.890  0.227-  20 2.53  43 2.54  37 2.54  13 2.54  10 2.54  12 2.54  21 2.55  24 2.55
                            41 2.55  44 2.55  30 2.56  35 2.56
  39  0.334  0.670  0.452-  22 2.51  37 2.53  36 2.54  40 2.54  25 2.54  29 2.56  28 2.57  45 2.57
                            42 2.58
  40  0.556  0.778  0.339-  25 2.53  42 2.54  44 2.54  39 2.54  41 2.54  32 2.55  29 2.55  31 2.55
                            37 2.55  43 2.55  23 2.55  26 2.55
  41  0.445  0.889  0.227-  37 2.53  40 2.54  23 2.54  16 2.54  13 2.54  15 2.54  24 2.55  32 2.55
                            38 2.55  30 2.55  44 2.55  27 2.55
  42  0.670  0.670  0.452-  19 2.51  43 2.53  40 2.54  36 2.54  25 2.54  31 2.56  33 2.57  45 2.57
                            39 2.58
  43  0.889  0.778  0.339-  42 2.53  19 2.53  44 2.53  36 2.53  38 2.54  35 2.54  40 2.55  26 2.55
                            34 2.55  37 2.55  31 2.55  20 2.55
  44  0.778  0.889  0.227-  43 2.53  40 2.54  26 2.54  10 2.54  18 2.54  16 2.54  32 2.55  21 2.55
                            35 2.55  38 2.55  41 2.55  27 2.55
  45  0.334  0.334  0.454-  42 2.57  33 2.57  39 2.57  22 2.57  28 2.57  19 2.58  31 2.58  29 2.58
                            20 2.58

  LATTYP: Found a hexagonal cell.
 ALAT       =     7.6549965918
 C/A-ratio  =     2.3949984178

  Lattice vectors:

 A1 = (   5.4129000000,  -5.4129000000,  -0.0000000000)
 A2 = (   0.0000000000,   5.4129000000,  -5.4129000000)
 A3 = (  10.5849693586,  10.5849693586,  10.5849693586)


Analysis of symmetry for initial positions (statically):
=====================================================================
 Subroutine PRICEL returns:
 Original cell was already a primitive cell.


 Routine SETGRP: Setting up the symmetry group for a
 hexagonal supercell.


 Subroutine GETGRP returns: Found  1 space group operations
 (whereof  1 operations were pure point group operations)
 out of a pool of 24 trial point group operations.


The static configuration has the point symmetry C_1 .


Analysis of symmetry for dynamics (positions and initial velocities):
=====================================================================
 Subroutine PRICEL returns:
 Original cell was already a primitive cell.


 Routine SETGRP: Setting up the symmetry group for a
 hexagonal supercell.


 Subroutine GETGRP returns: Found  1 space group operations
 (whereof  1 operations were pure point group operations)
 out of a pool of 24 trial point group operations.


The dynamic configuration has the point symmetry C_1 .


Analysis of constrained symmetry for selective dynamics:
=====================================================================
 Subroutine PRICEL returns:
 Original cell was already a primitive cell.


 Routine SETGRP: Setting up the symmetry group for a
 hexagonal supercell.


 Subroutine GETGRP returns: Found  1 space group operations
 (whereof  1 operations were pure point group operations)
 out of a pool of 24 trial point group operations.


The constrained configuration has the point symmetry C_1 .


 KPOINTS: K-Point Grid Created by Matt Darby on 30

Automatic generation of k-mesh.
Space group operators:
 irot       det(A)        alpha          n_x          n_y          n_z        tau_x        tau_y        tau_z
    1     1.000000     0.000000     1.000000     0.000000     0.000000     0.000000     0.000000     0.000000

 Subroutine IBZKPT returns following result:
 ===========================================

 Found     85 irreducible k-points:

 Following reciprocal coordinates:
            Coordinates               Weight
  0.000000  0.000000  0.000000      1.000000
  0.076923  0.000000  0.000000      2.000000
  0.153846  0.000000  0.000000      2.000000
  0.230769  0.000000  0.000000      2.000000
  0.307692  0.000000  0.000000      2.000000
  0.384615  0.000000  0.000000      2.000000
  0.461538  0.000000  0.000000      2.000000
  0.000000  0.076923  0.000000      2.000000
  0.076923  0.076923  0.000000      2.000000
  0.153846  0.076923  0.000000      2.000000
  0.230769  0.076923 -0.000000      2.000000
  0.307692  0.076923  0.000000      2.000000
  0.384615  0.076923 -0.000000      2.000000
  0.461538  0.076923 -0.000000      2.000000
 -0.461538  0.076923 -0.000000      2.000000
 -0.384615  0.076923 -0.000000      2.000000
 -0.307692  0.076923 -0.000000      2.000000
 -0.230769  0.076923  0.000000      2.000000
 -0.153846  0.076923 -0.000000      2.000000
 -0.076923  0.076923  0.000000      2.000000
 -0.000000  0.153846 -0.000000      2.000000
  0.076923  0.153846  0.000000      2.000000
  0.153846  0.153846  0.000000      2.000000
  0.230769  0.153846  0.000000      2.000000
  0.307692  0.153846  0.000000      2.000000
  0.384615  0.153846  0.000000      2.000000
  0.461538  0.153846  0.000000      2.000000
 -0.461538  0.153846  0.000000      2.000000
 -0.384615  0.153846  0.000000      2.000000
 -0.307692  0.153846 -0.000000      2.000000
 -0.230769  0.153846  0.000000      2.000000
 -0.153846  0.153846 -0.000000      2.000000
 -0.076923  0.153846 -0.000000      2.000000
 -0.000000  0.230769  0.000000      2.000000
  0.076923  0.230769 -0.000000      2.000000
  0.153846  0.230769  0.000000      2.000000
  0.230769  0.230769  0.000000      2.000000
  0.307692  0.230769  0.000000      2.000000
  0.384615  0.230769 -0.000000      2.000000
  0.461538  0.230769  0.000000      2.000000
 -0.461538  0.230769  0.000000      2.000000
 -0.384615  0.230769 -0.000000      2.000000
 -0.307692  0.230769  0.000000      2.000000
 -0.230769  0.230769 -0.000000      2.000000
 -0.153846  0.230769  0.000000      2.000000
 -0.076923  0.230769  0.000000      2.000000
 -0.000000  0.307692  0.000000      2.000000
  0.076923  0.307692  0.000000      2.000000
  0.153846  0.307692  0.000000      2.000000
  0.230769  0.307692  0.000000      2.000000
  0.307692  0.307692  0.000000      2.000000
  0.384615  0.307692  0.000000      2.000000
  0.461538  0.307692  0.000000      2.000000
 -0.461538  0.307692  0.000000      2.000000
 -0.384615  0.307692  0.000000      2.000000
 -0.307692  0.307692  0.000000      2.000000
 -0.230769  0.307692  0.000000      2.000000
 -0.153846  0.307692  0.000000      2.000000
 -0.076923  0.307692  0.000000      2.000000
 -0.000000  0.384615  0.000000      2.000000
  0.076923  0.384615 -0.000000      2.000000
  0.153846  0.384615  0.000000      2.000000
  0.230769  0.384615 -0.000000      2.000000
  0.307692  0.384615  0.000000      2.000000
  0.384615  0.384615  0.000000      2.000000
  0.461538  0.384615  0.000000      2.000000
 -0.461538  0.384615  0.000000      2.000000
 -0.384615  0.384615  0.000000      2.000000
 -0.307692  0.384615  0.000000      2.000000
 -0.230769  0.384615 -0.000000      2.000000
 -0.153846  0.384615  0.000000      2.000000
 -0.076923  0.384615 -0.000000      2.000000
 -0.000000  0.461538  0.000000      2.000000
  0.076923  0.461538  0.000000      2.000000
  0.153846  0.461538  0.000000      2.000000
  0.230769  0.461538  0.000000      2.000000
  0.307692  0.461538  0.000000      2.000000
  0.384615  0.461538  0.000000      2.000000
  0.461538  0.461538  0.000000      2.000000
 -0.461538  0.461538 -0.000000      2.000000
 -0.384615  0.461538  0.000000      2.000000
 -0.307692  0.461538  0.000000      2.000000
 -0.230769  0.461538  0.000000      2.000000
 -0.153846  0.461538 -0.000000      2.000000
 -0.076923  0.461538  0.000000      2.000000

 Following cartesian coordinates:
            Coordinates               Weight
  0.000000  0.000000  0.000000      1.000000
  0.009474 -0.004737 -0.004737      2.000000
  0.018948 -0.009474 -0.009474      2.000000
  0.028422 -0.014211 -0.014211      2.000000
  0.037896 -0.018948 -0.018948      2.000000
  0.047370 -0.023685 -0.023685      2.000000
  0.056844 -0.028422 -0.028422      2.000000
  0.004737  0.004737 -0.009474      2.000000
  0.014211  0.000000 -0.014211      2.000000
  0.023685 -0.004737 -0.018948      2.000000
  0.033159 -0.009474 -0.023685      2.000000
  0.042633 -0.014211 -0.028422      2.000000
  0.052107 -0.018948 -0.033159      2.000000
  0.061581 -0.023685 -0.037896      2.000000
 -0.052107  0.033159  0.018948      2.000000
 -0.042633  0.028422  0.014211      2.000000
 -0.033159  0.023685  0.009474      2.000000
 -0.023685  0.018948  0.004737      2.000000
 -0.014211  0.014211  0.000000      2.000000
 -0.004737  0.009474 -0.004737      2.000000
  0.009474  0.009474 -0.018948      2.000000
  0.018948  0.004737 -0.023685      2.000000
  0.028422  0.000000 -0.028422      2.000000
  0.037896 -0.004737 -0.033159      2.000000
  0.047370 -0.009474 -0.037896      2.000000
  0.056844 -0.014211 -0.042633      2.000000
  0.066318 -0.018948 -0.047370      2.000000
 -0.047370  0.037896  0.009474      2.000000
 -0.037896  0.033159  0.004737      2.000000
 -0.028422  0.028422 -0.000000      2.000000
 -0.018948  0.023685 -0.004737      2.000000
 -0.009474  0.018948 -0.009474      2.000000
  0.000000  0.014211 -0.014211      2.000000
  0.014211  0.014211 -0.028422      2.000000
  0.023685  0.009474 -0.033159      2.000000
  0.033159  0.004737 -0.037896      2.000000
  0.042633  0.000000 -0.042633      2.000000
  0.052107 -0.004737 -0.047370      2.000000
  0.061581 -0.009474 -0.052107      2.000000
  0.071055 -0.014211 -0.056844      2.000000
 -0.042633  0.042633  0.000000      2.000000
 -0.033159  0.037896 -0.004737      2.000000
 -0.023685  0.033159 -0.009474      2.000000
 -0.014211  0.028422 -0.014211      2.000000
 -0.004737  0.023685 -0.018948      2.000000
  0.004737  0.018948 -0.023685      2.000000
  0.018948  0.018948 -0.037896      2.000000
  0.028422  0.014211 -0.042633      2.000000
  0.037896  0.009474 -0.047370      2.000000
  0.047370  0.004737 -0.052107      2.000000
  0.056844  0.000000 -0.056844      2.000000
  0.066318 -0.004737 -0.061581      2.000000
  0.075792 -0.009474 -0.066318      2.000000
 -0.037896  0.047370 -0.009474      2.000000
 -0.028422  0.042633 -0.014211      2.000000
 -0.018948  0.037896 -0.018948      2.000000
 -0.009474  0.033159 -0.023685      2.000000
 -0.000000  0.028422 -0.028422      2.000000
  0.009474  0.023685 -0.033159      2.000000
  0.023685  0.023685 -0.047370      2.000000
  0.033159  0.018948 -0.052107      2.000000
  0.042633  0.014211 -0.056844      2.000000
  0.052107  0.009474 -0.061581      2.000000
  0.061581  0.004737 -0.066318      2.000000
  0.071055  0.000000 -0.071055      2.000000
  0.080529 -0.004737 -0.075792      2.000000
 -0.033159  0.052107 -0.018948      2.000000
 -0.023685  0.047370 -0.023685      2.000000
 -0.014211  0.042633 -0.028422      2.000000
 -0.004737  0.037896 -0.033159      2.000000
  0.004737  0.033159 -0.037896      2.000000
  0.014211  0.028422 -0.042633      2.000000
  0.028422  0.028422 -0.056844      2.000000
  0.037896  0.023685 -0.061581      2.000000
  0.047370  0.018948 -0.066318      2.000000
  0.056844  0.014211 -0.071055      2.000000
  0.066318  0.009474 -0.075792      2.000000
  0.075792  0.004737 -0.080529      2.000000
  0.085266  0.000000 -0.085266      2.000000
 -0.028422  0.056844 -0.028422      2.000000
 -0.018948  0.052107 -0.033159      2.000000
 -0.009474  0.047370 -0.037896      2.000000
  0.000000  0.042633 -0.042633      2.000000
  0.009474  0.037896 -0.047370      2.000000
  0.018948  0.033159 -0.052107      2.000000



--------------------------------------------------------------------------------------------------------




 Dimension of arrays:
   k-points           NKPTS =     85   k-points in BZ     NKDIM =     85   number of bands    NBANDS=    296
   number of dos      NEDOS =    301   number of ions     NIONS =     45
   non local maximal  LDIM  =      6   non local SUM 2l+1 LMDIM =     18
   total plane-waves  NPLWV = 300000
   max r-space proj   IRMAX =   6660   max aug-charges    IRDMAX=  18523
   dimension x,y,z NGX =    50 NGY =   50 NGZ =  120
   dimension x,y,z NGXF=   100 NGYF=  100 NGZF=  240
   support grid    NGXF=   100 NGYF=  100 NGZF=  240
   ions per type =              44   1
 NGX,Y,Z   is equivalent  to a cutoff of  10.86, 10.86, 10.88 a.u.
 NGXF,Y,Z  is equivalent  to a cutoff of  21.72, 21.72, 21.76 a.u.


 I would recommend the setting:
   dimension x,y,z NGX =    50 NGY =   50 NGZ =  120
 SYSTEM =  unknown system
 POSCAR =  POSCAR file for Cu_3x3x5.xsd | Created o

 Startparameter for this run:
   NWRITE =      1    write-flag & timer
   PREC   = accura    normal or accurate (medium, high low for compatibility)
   ISTART =      0    job   : 0-new  1-cont  2-samecut
   ICHARG =      2    charge: 1-file 2-atom 10-const
   ISPIN  =      1    spin polarized calculation?
   LNONCOLLINEAR =      F non collinear calculations
   LSORBIT =      F    spin-orbit coupling
   INIWAV =      1    electr: 0-lowe 1-rand  2-diag
   LASPH  =      F    aspherical Exc in radial PAW
   METAGGA=      F    non-selfconsistent MetaGGA calc.

 Electronic Relaxation 1
   ENCUT  =  400.0 eV  29.40 Ry    5.42 a.u.  12.48 12.48 29.90*2*pi/ulx,y,z
   ENINI  =  400.0     initial cutoff
   ENAUG  =  516.5 eV  augmentation charge cutoff
   NELM   =    100;   NELMIN=  2; NELMDL=-10     # of ELM steps
   EDIFF  = 0.1E-06   stopping-criterion for ELM
   LREAL  =      T    real-space projection
   NLSPLINE    = F    spline interpolate recip. space projectors
   LCOMPAT=      F    compatible to vasp.4.4
   GGA_COMPAT  = T    GGA compatible to vasp.4.4-vasp.4.6
   LMAXPAW     = -100 max onsite density
   LMAXMIX     =    2 max onsite mixed and CHGCAR
   VOSKOWN=      1    Vosko Wilk Nusair interpolation
   ROPT   =   -0.00020  -0.00020
 Ionic relaxation
   EDIFFG = -.1E-01   stopping-criterion for IOM
   NSW    =    200    number of steps for IOM
   NBLOCK =      1;   KBLOCK =    200    inner block; outer block
   IBRION =      2    ionic relax: 0-MD 1-quasi-New 2-CG
   NFREE  =     10    steps in history (QN), initial steepest desc. (CG)
   ISIF   =      2    stress and relaxation
   IWAVPR =     11    prediction:  0-non 1-charg 2-wave 3-comb
   ISYM   =      2    0-nonsym 1-usesym 2-fastsym
   LCORR  =      T    Harris-Foulkes like correction to forces

   POTIM  = 0.1250    time-step for ionic-motion
   TEIN   =    0.0    initial temperature
   TEBEG  =    0.0;   TEEND  =   0.0 temperature during run
   SMASS  =  -3.00    Nose mass-parameter (am)
   estimated Nose-frequenzy (Omega)   =  0.10E-29 period in steps =****** mass=  -0.134E-26a.u.
   SCALEE = 1.0000    scale energy and forces
   NPACO  =    256;   APACO  = 16.0  distance and # of slots for P.C.
   PSTRESS=    0.0 pullay stress

  Mass of Ions in am
   POMASS =  63.55102.91
  Ionic Valenz
   ZVAL   =  11.00  9.00
  Atomic Wigner-Seitz radii
   RWIGS  =  -1.00 -1.00
  virtual crystal weights
   VCA    =   1.00  1.00
   NELECT =     493.0000    total number of electrons
   NUPDOWN=      -1.0000    fix difference up-down

 DOS related values:
   EMIN   =  10.00;   EMAX   =-10.00  energy-range for DOS
   EFERMI =   0.00
   ISMEAR =     1;   SIGMA  =   0.10  broadening in eV -4-tet -1-fermi 0-gaus

 Electronic relaxation 2 (details)
   IALGO  =     68    algorithm
   LDIAG  =      T    sub-space diagonalisation (order eigenvalues)
   LSUBROT=      F    optimize rotation matrix (better conditioning)
   TURBO    =      0    0=normal 1=particle mesh
   IRESTART =      0    0=no restart 2=restart with 2 vectors
   NREBOOT  =      0    no. of reboots
   NMIN     =      0    reboot dimension
   EREF     =   0.00    reference energy to select bands
   IMIX   =      4    mixing-type and parameters
     AMIX     =   0.40;   BMIX     =  1.00
     AMIX_MAG =   1.60;   BMIX_MAG =  1.00
     AMIN     =   0.10
     WC   =   100.;   INIMIX=   1;  MIXPRE=   1;  MAXMIX= -45

 Intra band minimization:
   WEIMIN = 0.0010     energy-eigenvalue tresh-hold
   EBREAK =  0.84E-10  absolut break condition
   DEPER  =   0.30     relativ break condition

   TIME   =   0.40     timestep for ELM

  volume/ion in A,a.u.               =      20.68       139.53
  Fermi-wavevector in a.u.,A,eV,Ry     =   1.324749  2.503412 23.877670  1.754959
  Thomas-Fermi vector in A             =   2.454260

 Write flags
   LWAVE  =      F    write WAVECAR
   LCHARG =      F    write CHGCAR
   LVTOT  =      F    write LOCPOT, total local potential
   LVHAR  =      F    write LOCPOT, Hartree potential only
   LELF   =      F    write electronic localiz. function (ELF)
   LORBIT =      0    0 simple, 1 ext, 2 COOP (PROOUT)


 Dipole corrections
   LMONO  =      F    monopole corrections only (constant potential shift)
   LDIPOL =      T    correct potential (dipole corrections)
   IDIPOL =      3    1-x, 2-y, 3-z, 4-all directions
   EPSILON=  1.0000000 bulk dielectric constant

 Exchange correlation treatment:
   GGA     =    MK    GGA type
   LEXCH   =    43    internal setting for exchange type
   VOSKOWN=      1    Vosko Wilk Nusair interpolation
   LHFCALC =     F    Hartree Fock is set to
   LHFONE  =     F    Hartree Fock one center treatment
   AEXX    =    0.0000 exact exchange contribution

 vdW DFT:
   LUSE_VDW   =     T    switch on vdW DFT
   Zab_VDW    =-.8491    correlation parameter
   PARAM1     =0.1234
   PARAM2     =1.0000
   PARAM3     =0.0000

 Linear response parameters
   LEPSILON=     F    determine dielectric tensor
   LRPA    =     F    only Hartree local field effects (RPA)
   LNABLA  =     F    use nabla operator in PAW spheres
   LVEL    =     F    velocity operator in full k-point grid
   LINTERFAST=   F  fast interpolation
   KINTER  =     0    interpolate to denser k-point grid
   CSHIFT  =0.1000    complex shift for real part using Kramers Kronig
   OMEGAMAX=  -1.0    maximum frequency
   DEG_THRESHOLD= 0.2000000E-02 threshold for treating states as degnerate
   RTIME   =    0.100 relaxation time in fs

 Orbital magnetization related:
   ORBITALMAG=     F  switch on orbital magnetization
   LCHIMAG   =     F  perturbation theory with respect to B field
   DQ        =  0.001000  dq finite difference perturbation B field



--------------------------------------------------------------------------------------------------------


 conjugate gradient relaxation of ions
   using selective dynamics as specified on POSCAR
 charge density and potential will be updated during run
 non-spin polarized calculation
 RMM-DIIS sequential band-by-band and
  variant of blocked Davidson during initial phase
 perform sub-space diagonalisation
    before iterative eigenvector-optimisation
 modified Broyden-mixing scheme, WC =      100.0
 initial mixing is a Kerker type mixing with AMIX =  0.4000 and BMIX =      1.0000
 Hartree-type preconditioning will be used
 using additional bands           49
 real space projection scheme for non local part
 use partial core corrections
 calculate Harris-corrections to forces
   (improved forces if not selfconsistent)
 use gradient corrections
 use of overlap-Matrix (Vanderbilt PP)
 Methfessel and Paxton  Order N= 1 SIGMA  =   0.10


--------------------------------------------------------------------------------------------------------


  energy-cutoff  :      400.00
  volume of cell :      930.40
      direct lattice vectors                 reciprocal lattice vectors
     5.412900000 -5.412900000 -0.000000000     0.123162568 -0.061581284 -0.061581284
     0.000000000  5.412900000 -5.412900000     0.061581284  0.061581284 -0.123162568
    10.584969359 10.584969359 10.584969359     0.031491195  0.031491195  0.031491195

  length of vectors
     7.654996592  7.654996592 18.333704726     0.150842724  0.150842724  0.054544350



 k-points in units of 2pi/SCALE and weight: K-Point Grid Created by Matt Darby on 30
   0.00000000  0.00000000  0.00000000       0.006
   0.00947404 -0.00473702 -0.00473702       0.012
   0.01894809 -0.00947404 -0.00947404       0.012
   0.02842213 -0.01421107 -0.01421107       0.012
   0.03789617 -0.01894809 -0.01894809       0.012
   0.04737022 -0.02368511 -0.02368511       0.012
   0.05684426 -0.02842213 -0.02842213       0.012
   0.00473702  0.00473702 -0.00947404       0.012
   0.01421107  0.00000000 -0.01421107       0.012
   0.02368511 -0.00473702 -0.01894809       0.012
   0.03315915 -0.00947404 -0.02368511       0.012
   0.04263320 -0.01421107 -0.02842213       0.012
   0.05210724 -0.01894809 -0.03315915       0.012
   0.06158128 -0.02368511 -0.03789617       0.012
  -0.05210724  0.03315915  0.01894809       0.012
  -0.04263320  0.02842213  0.01421107       0.012
  -0.03315915  0.02368511  0.00947404       0.012
  -0.02368511  0.01894809  0.00473702       0.012
  -0.01421107  0.01421107  0.00000000       0.012
  -0.00473702  0.00947404 -0.00473702       0.012
   0.00947404  0.00947404 -0.01894809       0.012
   0.01894809  0.00473702 -0.02368511       0.012
   0.02842213  0.00000000 -0.02842213       0.012
   0.03789617 -0.00473702 -0.03315915       0.012
   0.04737022 -0.00947404 -0.03789617       0.012
   0.05684426 -0.01421107 -0.04263320       0.012
   0.06631831 -0.01894809 -0.04737022       0.012
  -0.04737022  0.03789617  0.00947404       0.012
  -0.03789617  0.03315915  0.00473702       0.012
  -0.02842213  0.02842213 -0.00000000       0.012
  -0.01894809  0.02368511 -0.00473702       0.012
  -0.00947404  0.01894809 -0.00947404       0.012
   0.00000000  0.01421107 -0.01421107       0.012
   0.01421107  0.01421107 -0.02842213       0.012
   0.02368511  0.00947404 -0.03315915       0.012
   0.03315915  0.00473702 -0.03789617       0.012
   0.04263320  0.00000000 -0.04263320       0.012
   0.05210724 -0.00473702 -0.04737022       0.012
   0.06158128 -0.00947404 -0.05210724       0.012
   0.07105533 -0.01421107 -0.05684426       0.012
  -0.04263320  0.04263320  0.00000000       0.012
  -0.03315915  0.03789617 -0.00473702       0.012
  -0.02368511  0.03315915 -0.00947404       0.012
  -0.01421107  0.02842213 -0.01421107       0.012
  -0.00473702  0.02368511 -0.01894809       0.012
   0.00473702  0.01894809 -0.02368511       0.012
   0.01894809  0.01894809 -0.03789617       0.012
   0.02842213  0.01421107 -0.04263320       0.012
   0.03789617  0.00947404 -0.04737022       0.012
   0.04737022  0.00473702 -0.05210724       0.012
   0.05684426  0.00000000 -0.05684426       0.012
   0.06631831 -0.00473702 -0.06158128       0.012
   0.07579235 -0.00947404 -0.06631831       0.012
  -0.03789617  0.04737022 -0.00947404       0.012
  -0.02842213  0.04263320 -0.01421107       0.012
  -0.01894809  0.03789617 -0.01894809       0.012
  -0.00947404  0.03315915 -0.02368511       0.012
  -0.00000000  0.02842213 -0.02842213       0.012
   0.00947404  0.02368511 -0.03315915       0.012
   0.02368511  0.02368511 -0.04737022       0.012
   0.03315915  0.01894809 -0.05210724       0.012
   0.04263320  0.01421107 -0.05684426       0.012
   0.05210724  0.00947404 -0.06158128       0.012
   0.06158128  0.00473702 -0.06631831       0.012
   0.07105533  0.00000000 -0.07105533       0.012
   0.08052937 -0.00473702 -0.07579235       0.012
  -0.03315915  0.05210724 -0.01894809       0.012
  -0.02368511  0.04737022 -0.02368511       0.012
  -0.01421107  0.04263320 -0.02842213       0.012
  -0.00473702  0.03789617 -0.03315915       0.012
   0.00473702  0.03315915 -0.03789617       0.012
   0.01421107  0.02842213 -0.04263320       0.012
   0.02842213  0.02842213 -0.05684426       0.012
   0.03789617  0.02368511 -0.06158128       0.012
   0.04737022  0.01894809 -0.06631831       0.012
   0.05684426  0.01421107 -0.07105533       0.012
   0.06631831  0.00947404 -0.07579235       0.012
   0.07579235  0.00473702 -0.08052937       0.012
   0.08526639  0.00000000 -0.08526639       0.012
  -0.02842213  0.05684426 -0.02842213       0.012
  -0.01894809  0.05210724 -0.03315915       0.012
  -0.00947404  0.04737022 -0.03789617       0.012
   0.00000000  0.04263320 -0.04263320       0.012
   0.00947404  0.03789617 -0.04737022       0.012
   0.01894809  0.03315915 -0.05210724       0.012

 k-points in reciprocal lattice and weights: K-Point Grid Created by Matt Darby on 30
   0.00000000  0.00000000  0.00000000       0.006
   0.07692308  0.00000000  0.00000000       0.012
   0.15384615  0.00000000  0.00000000       0.012
   0.23076923  0.00000000  0.00000000       0.012
   0.30769231  0.00000000  0.00000000       0.012
   0.38461538  0.00000000  0.00000000       0.012
   0.46153846  0.00000000  0.00000000       0.012
   0.00000000  0.07692308  0.00000000       0.012
   0.07692308  0.07692308  0.00000000       0.012
   0.15384615  0.07692308  0.00000000       0.012
   0.23076923  0.07692308 -0.00000000       0.012
   0.30769231  0.07692308  0.00000000       0.012
   0.38461538  0.07692308 -0.00000000       0.012
   0.46153846  0.07692308 -0.00000000       0.012
  -0.46153846  0.07692308 -0.00000000       0.012
  -0.38461538  0.07692308 -0.00000000       0.012
  -0.30769231  0.07692308 -0.00000000       0.012
  -0.23076923  0.07692308  0.00000000       0.012
  -0.15384615  0.07692308 -0.00000000       0.012
  -0.07692308  0.07692308  0.00000000       0.012
  -0.00000000  0.15384615 -0.00000000       0.012
   0.07692308  0.15384615  0.00000000       0.012
   0.15384615  0.15384615  0.00000000       0.012
   0.23076923  0.15384615  0.00000000       0.012
   0.30769231  0.15384615  0.00000000       0.012
   0.38461538  0.15384615  0.00000000       0.012
   0.46153846  0.15384615  0.00000000       0.012
  -0.46153846  0.15384615  0.00000000       0.012
  -0.38461538  0.15384615  0.00000000       0.012
  -0.30769231  0.15384615 -0.00000000       0.012
  -0.23076923  0.15384615  0.00000000       0.012
  -0.15384615  0.15384615 -0.00000000       0.012
  -0.07692308  0.15384615 -0.00000000       0.012
  -0.00000000  0.23076923  0.00000000       0.012
   0.07692308  0.23076923 -0.00000000       0.012
   0.15384615  0.23076923  0.00000000       0.012
   0.23076923  0.23076923  0.00000000       0.012
   0.30769231  0.23076923  0.00000000       0.012
   0.38461538  0.23076923 -0.00000000       0.012
   0.46153846  0.23076923  0.00000000       0.012
  -0.46153846  0.23076923  0.00000000       0.012
  -0.38461538  0.23076923 -0.00000000       0.012
  -0.30769231  0.23076923  0.00000000       0.012
  -0.23076923  0.23076923 -0.00000000       0.012
  -0.15384615  0.23076923  0.00000000       0.012
  -0.07692308  0.23076923  0.00000000       0.012
  -0.00000000  0.30769231  0.00000000       0.012
   0.07692308  0.30769231  0.00000000       0.012
   0.15384615  0.30769231  0.00000000       0.012
   0.23076923  0.30769231  0.00000000       0.012
   0.30769231  0.30769231  0.00000000       0.012
   0.38461538  0.30769231  0.00000000       0.012
   0.46153846  0.30769231  0.00000000       0.012
  -0.46153846  0.30769231  0.00000000       0.012
  -0.38461538  0.30769231  0.00000000       0.012
  -0.30769231  0.30769231  0.00000000       0.012
  -0.23076923  0.30769231  0.00000000       0.012
  -0.15384615  0.30769231  0.00000000       0.012
  -0.07692308  0.30769231  0.00000000       0.012
  -0.00000000  0.38461538  0.00000000       0.012
   0.07692308  0.38461538 -0.00000000       0.012
   0.15384615  0.38461538  0.00000000       0.012
   0.23076923  0.38461538 -0.00000000       0.012
   0.30769231  0.38461538  0.00000000       0.012
   0.38461538  0.38461538  0.00000000       0.012
   0.46153846  0.38461538  0.00000000       0.012
  -0.46153846  0.38461538  0.00000000       0.012
  -0.38461538  0.38461538  0.00000000       0.012
  -0.30769231  0.38461538  0.00000000       0.012
  -0.23076923  0.38461538 -0.00000000       0.012
  -0.15384615  0.38461538  0.00000000       0.012
  -0.07692308  0.38461538 -0.00000000       0.012
  -0.00000000  0.46153846  0.00000000       0.012
   0.07692308  0.46153846  0.00000000       0.012
   0.15384615  0.46153846  0.00000000       0.012
   0.23076923  0.46153846  0.00000000       0.012
   0.30769231  0.46153846  0.00000000       0.012
   0.38461538  0.46153846  0.00000000       0.012
   0.46153846  0.46153846  0.00000000       0.012
  -0.46153846  0.46153846 -0.00000000       0.012
  -0.38461538  0.46153846  0.00000000       0.012
  -0.30769231  0.46153846  0.00000000       0.012
  -0.23076923  0.46153846  0.00000000       0.012
  -0.15384615  0.46153846 -0.00000000       0.012
  -0.07692308  0.46153846  0.00000000       0.012

 position of ions in fractional coordinates (direct lattice)
   0.22222222  0.11111111  0.00000000
   0.22222222  0.44444444  0.00000000
   0.22222222  0.77777778  0.00000000
   0.55555556  0.11111111  0.00000000
   0.55555556  0.44444444  0.00000000
   0.55555556  0.77777778  0.00000000
   0.88888889  0.11111111  0.00000000
   0.88888889  0.44444444  0.00000000
   0.88888889  0.77777778  0.00000000
   0.00000000  0.00000000  0.11363913
   0.00000000  0.33333333  0.11363913
   0.00000000  0.66666667  0.11363913
   0.33333333  0.00000000  0.11363913
   0.33333333  0.33333333  0.11363913
   0.33333333  0.66666667  0.11363913
   0.66666667  0.00000000  0.11363913
   0.66666667  0.33333333  0.11363913
   0.66666667  0.66666667  0.11363913
   0.99812173  0.99766504  0.45202130
   0.22296876  0.11187016  0.33885197
   0.11088820  0.22209931  0.22589260
   0.33368636  0.99764800  0.45225124
   0.55587035  0.11156162  0.33945346
   0.44497879  0.22210166  0.22588895
   0.66737786  0.00051300  0.45158301
   0.88961391  0.11160025  0.33940326
   0.77808600  0.22244502  0.22665503
   0.99810880  0.33417263  0.45216161
   0.22285453  0.44458611  0.33886336
   0.11161811  0.55544377  0.22657095
   0.55563393  0.44456141  0.33879481
   0.44493188  0.55619682  0.22588855
   0.67031799  0.33407511  0.45217802
   0.88925417  0.44466183  0.33914602
   0.77753042  0.55544052  0.22653065
   0.00068018  0.66722655  0.45157462
   0.22282484  0.77819076  0.33916877
   0.11165052  0.88956583  0.22655910
   0.33363614  0.66984304  0.45219547
   0.55586394  0.77784246  0.33942200
   0.44465095  0.88901717  0.22665391
   0.67042657  0.66997827  0.45209101
   0.88930822  0.77813344  0.33907798
   0.77805555  0.88898302  0.22663478
   0.33432948  0.33415405  0.45441871

 position of ions in cartesian coordinates  (Angst):
   1.20286667 -0.60143333 -0.60143333
   1.20286667  1.20286667 -2.40573333
   1.20286667  3.00716667 -4.21003333
   3.00716667 -2.40573333 -0.60143333
   3.00716667 -0.60143333 -2.40573333
   3.00716667  1.20286667 -4.21003333
   4.81146667 -4.21003333 -0.60143333
   4.81146667 -2.40573333 -2.40573333
   4.81146667 -0.60143333 -4.21003333
   1.20286667  1.20286667  1.20286667
   1.20286667  3.00716667 -0.60143333
   1.20286667  4.81146667 -2.40573333
   3.00716667 -0.60143333  1.20286667
   3.00716667  1.20286667 -0.60143333
   3.00716667  3.00716667 -2.40573333
   4.81146667 -2.40573333  1.20286667
   4.81146667 -0.60143333 -0.60143333
   4.81146667  1.20286667 -2.40573333
  10.18736471  4.78215954 -0.61562949
   4.79364537  2.98537214  2.98119578
   2.99129301  2.99304083  1.18886491
   6.59327638  8.38102348 -0.61310339
   6.60197512  1.18810576  2.98923258
   4.79965328  1.18461599  1.18881355
   8.39244192  1.17031948  4.77721547
   8.40796426 -0.61873704  2.98849216
   6.61083826 -0.60849255  1.19506391
  10.18877994  1.19229674  2.97727378
   4.79314757  4.78706913  1.18035815
   3.00242422  4.80063041 -0.60831504
   6.59372356  2.98490827  1.17976620
   4.79939515  2.99328935 -0.61961437
   8.41465470  2.96624142  2.97797528
   8.40329408  1.18331634  1.18294016
   6.60651441  1.19566966 -0.60872399
   4.78358531  8.38785236  1.16827297
   4.79621955  6.59623120 -0.62217778
   3.00247424  6.60889895 -2.41700972
   6.59241425  6.60632953  1.16068184
   6.60160739  4.79431904 -0.61761196
   4.80597582  4.80443462 -2.41303630
   8.41432151  4.78294293  1.15884414
   8.40286651  2.98735212 -0.62282841
   6.61045906  2.99936146 -2.41305403
   6.61970011  4.80905851  3.00126564



--------------------------------------------------------------------------------------------------------


 k-point  1 :   0.0000 0.0000 0.0000  plane waves:   16943
 k-point  2 :   0.0769 0.0000 0.0000  plane waves:   16935
 k-point  3 :   0.1538 0.0000 0.0000  plane waves:   16955
 k-point  4 :   0.2308 0.0000 0.0000  plane waves:   16932
 k-point  5 :   0.3077 0.0000 0.0000  plane waves:   16886
 k-point  6 :   0.3846 0.0000 0.0000  plane waves:   16874
 k-point  7 :   0.4615 0.0000 0.0000  plane waves:   16856
 k-point  8 :   0.0000 0.0769 0.0000  plane waves:   16935
 k-point  9 :   0.0769 0.0769 0.0000  plane waves:   16959
 k-point 10 :   0.1538 0.0769 0.0000  plane waves:   16930
 k-point 11 :   0.2308 0.0769-0.0000  plane waves:   16910
 k-point 12 :   0.3077 0.0769 0.0000  plane waves:   16914
 k-point 13 :   0.3846 0.0769-0.0000  plane waves:   16868
 k-point 14 :   0.4615 0.0769-0.0000  plane waves:   16856
 k-point 15 :  -0.4615 0.0769-0.0000  plane waves:   16868
 k-point 16 :  -0.3846 0.0769-0.0000  plane waves:   16914
 k-point 17 :  -0.3077 0.0769-0.0000  plane waves:   16910
 k-point 18 :  -0.2308 0.0769 0.0000  plane waves:   16930
 k-point 19 :  -0.1538 0.0769-0.0000  plane waves:   16959
 k-point 20 :  -0.0769 0.0769 0.0000  plane waves:   16935
 k-point 21 :  -0.0000 0.1538-0.0000  plane waves:   16955
 k-point 22 :   0.0769 0.1538 0.0000  plane waves:   16930
 k-point 23 :   0.1538 0.1538 0.0000  plane waves:   16933
 k-point 24 :   0.2308 0.1538 0.0000  plane waves:   16913
 k-point 25 :   0.3077 0.1538 0.0000  plane waves:   16897
 k-point 26 :   0.3846 0.1538 0.0000  plane waves:   16850
 k-point 27 :   0.4615 0.1538 0.0000  plane waves:   16850
 k-point 28 :  -0.4615 0.1538 0.0000  plane waves:   16897
 k-point 29 :  -0.3846 0.1538 0.0000  plane waves:   16913
 k-point 30 :  -0.3077 0.1538-0.0000  plane waves:   16933
 k-point 31 :  -0.2308 0.1538 0.0000  plane waves:   16930
 k-point 32 :  -0.1538 0.1538-0.0000  plane waves:   16955
 k-point 33 :  -0.0769 0.1538-0.0000  plane waves:   16959
 k-point 34 :  -0.0000 0.2308 0.0000  plane waves:   16932
 k-point 35 :   0.0769 0.2308-0.0000  plane waves:   16910
 k-point 36 :   0.1538 0.2308 0.0000  plane waves:   16913
 k-point 37 :   0.2308 0.2308 0.0000  plane waves:   16885
 k-point 38 :   0.3077 0.2308 0.0000  plane waves:   16884
 k-point 39 :   0.3846 0.2308-0.0000  plane waves:   16872
 k-point 40 :   0.4615 0.2308 0.0000  plane waves:   16884
 k-point 41 :  -0.4615 0.2308 0.0000  plane waves:   16885
 k-point 42 :  -0.3846 0.2308-0.0000  plane waves:   16913
 k-point 43 :  -0.3077 0.2308 0.0000  plane waves:   16910
 k-point 44 :  -0.2308 0.2308-0.0000  plane waves:   16932
 k-point 45 :  -0.1538 0.2308 0.0000  plane waves:   16930
 k-point 46 :  -0.0769 0.2308 0.0000  plane waves:   16930
 k-point 47 :  -0.0000 0.3077 0.0000  plane waves:   16886
 k-point 48 :   0.0769 0.3077 0.0000  plane waves:   16914
 k-point 49 :   0.1538 0.3077 0.0000  plane waves:   16897
 k-point 50 :   0.2308 0.3077 0.0000  plane waves:   16884
 k-point 51 :   0.3077 0.3077 0.0000  plane waves:   16896
 k-point 52 :   0.3846 0.3077 0.0000  plane waves:   16896
 k-point 53 :   0.4615 0.3077 0.0000  plane waves:   16884
 k-point 54 :  -0.4615 0.3077 0.0000  plane waves:   16897
 k-point 55 :  -0.3846 0.3077 0.0000  plane waves:   16914
 k-point 56 :  -0.3077 0.3077 0.0000  plane waves:   16886
 k-point 57 :  -0.2308 0.3077 0.0000  plane waves:   16910
 k-point 58 :  -0.1538 0.3077 0.0000  plane waves:   16933
 k-point 59 :  -0.0769 0.3077 0.0000  plane waves:   16910
 k-point 60 :  -0.0000 0.3846 0.0000  plane waves:   16874
 k-point 61 :   0.0769 0.3846-0.0000  plane waves:   16868
 k-point 62 :   0.1538 0.3846 0.0000  plane waves:   16850
 k-point 63 :   0.2308 0.3846-0.0000  plane waves:   16872
 k-point 64 :   0.3077 0.3846 0.0000  plane waves:   16896
 k-point 65 :   0.3846 0.3846 0.0000  plane waves:   16872
 k-point 66 :   0.4615 0.3846 0.0000  plane waves:   16850
 k-point 67 :  -0.4615 0.3846 0.0000  plane waves:   16868
 k-point 68 :  -0.3846 0.3846 0.0000  plane waves:   16874
 k-point 69 :  -0.3077 0.3846 0.0000  plane waves:   16914
 k-point 70 :  -0.2308 0.3846-0.0000  plane waves:   16913
 k-point 71 :  -0.1538 0.3846 0.0000  plane waves:   16913
 k-point 72 :  -0.0769 0.3846-0.0000  plane waves:   16914
 k-point 73 :  -0.0000 0.4615 0.0000  plane waves:   16856
 k-point 74 :   0.0769 0.4615 0.0000  plane waves:   16856
 k-point 75 :   0.1538 0.4615 0.0000  plane waves:   16850
 k-point 76 :   0.2308 0.4615 0.0000  plane waves:   16884
 k-point 77 :   0.3077 0.4615 0.0000  plane waves:   16884
 k-point 78 :   0.3846 0.4615 0.0000  plane waves:   16850
 k-point 79 :   0.4615 0.4615 0.0000  plane waves:   16856
 k-point 80 :  -0.4615 0.4615-0.0000  plane waves:   16856
 k-point 81 :  -0.3846 0.4615 0.0000  plane waves:   16868
 k-point 82 :  -0.3077 0.4615 0.0000  plane waves:   16897
 k-point 83 :  -0.2308 0.4615 0.0000  plane waves:   16885
 k-point 84 :  -0.1538 0.4615-0.0000  plane waves:   16897
 k-point 85 :  -0.0769 0.4615 0.0000  plane waves:   16868

 maximum and minimum number of plane-waves per node :      4265     4197

 maximum number of plane-waves:     16959
 maximum index in each direction:
   IXMAX=   12   IYMAX=   12   IZMAX=   29
   IXMIN=  -12   IYMIN=  -12   IZMIN=  -29

 NGX is ok and might be reduce to  50
 NGY is ok and might be reduce to  50
 NGZ is ok and might be reduce to 118

 real space projection operators:
  total allocation   :      31324.50 KBytes
  max/ min on nodes  :       8136.42       7528.78


 parallel 3D FFT for wavefunctions:
    minimum data exchange during FFTs selected (reduces bandwidth)
 parallel 3D FFT for charge:
    minimum data exchange during FFTs selected (reduces bandwidth)


 total amount of memory used by VASP on root node   283415. kBytes
========================================================================

   base      :      30000. kBytes
   nonlr-proj:      15092. kBytes
   fftplans  :       5374. kBytes
   grid      :       8538. kBytes
   one-center:        186. kBytes
   wavefun   :     224225. kBytes

     INWAV:  cpu time    0.0001: real time    0.0002
 Broyden mixing: mesh for mixing (old mesh)
   NGX = 25   NGY = 25   NGZ = 59
  (NGX  =100   NGY  =100   NGZ  =240)
  gives a total of  36875 points

 initial charge density was supplied:
 charge density of overlapping atoms calculated
 number of electron     493.0000000 magnetization
 keeping initial charge density in first step


--------------------------------------------------------------------------------------------------------


 Maximum index for non-local projection operator         1599
 Maximum index for augmentation-charges         1057 (set IRDMAX)


--------------------------------------------------------------------------------------------------------


 First call to EWALD:  gamma=   0.182
 Maximum number of real-space cells 4x 4x 2
 Maximum number of reciprocal cells 2x 2x 5

 FEWALD executed in parallel
    FEWALD:  cpu time    0.0028: real time    0.0031


----------------------------------------- Iteration    9(   1)  ---------------------------------------


    POTLOK:  cpu time    3.3471: real time    3.3550
    SETDIJ:  cpu time    0.0098: real time    0.0098
     EDDAV:  cpu time  114.7221: real time  114.9403
       DOS:  cpu time    0.0140: real time    0.0140
    CHARGE:  cpu time    3.9644: real time    3.9669
    MIXING:  cpu time    0.0013: real time    0.0013
    --------------------------------------------
      LOOP:  cpu time  122.0606: real time  122.2924

 eigenvalue-minimisations  : 50512
 total energy-change (2. order) :-0.1828837E-03  (-0.8101604E-02)
 number of electron     492.9999935 magnetization
 augmentation part      320.1990901 magnetization

 DIPCOR: dipole corrections for dipol
 direction  3 min pos   175,
 dipolmoment           0.007876      0.007876      0.007876 electrons x Angstroem
 Tr[quadrupol]     -4759.793254

 energy correction for charged system         0.000000 eV
 dipol+quadrupol energy correction           -0.000018 eV
 added-field ion interaction         -0.008004 eV  (added to PSCEN)


  free energy =  -0.619854430311E+02  energy without entropy=  -0.619716644593E+02


--------------------------------------------------------------------------------------------------------




----------------------------------------- Iteration    9(   2)  ---------------------------------------


    POTLOK:  cpu time    3.0419: real time    3.0412
    SETDIJ:  cpu time    0.0097: real time    0.0097
    EDDIAG:  cpu time   16.8908: real time   16.8985
  RMM-DIIS:  cpu time   48.2608: real time   48.2987
    ORTHCH:  cpu time    2.4787: real time    2.4869
       DOS:  cpu time    0.0142: real time    0.0142
    CHARGE:  cpu time    3.8998: real time    3.8983
    MIXING:  cpu time    0.0014: real time    0.0014
    --------------------------------------------
      LOOP:  cpu time   74.6010: real time   74.6553

 eigenvalue-minimisations  : 50455
 total energy-change (2. order) :-0.4134508E-04  (-0.4157693E-04)
 number of electron     492.9999935 magnetization
 augmentation part      320.1994805 magnetization

 DIPCOR: dipole corrections for dipol
 direction  3 min pos   175,
 dipolmoment           0.007629      0.007629      0.007629 electrons x Angstroem
 Tr[quadrupol]     -4759.794694

 energy correction for charged system         0.000000 eV
 dipol+quadrupol energy correction           -0.000017 eV
 added-field ion interaction         -0.007753 eV  (added to PSCEN)


 eigenvalues of (default mixing * dielectric matrix)
  average eigenvalue GAMMA=   0.3292
  0.3292

  free energy =  -0.619854843762E+02  energy without entropy=  -0.619716855826E+02


--------------------------------------------------------------------------------------------------------




----------------------------------------- Iteration    9(   3)  ---------------------------------------


    POTLOK:  cpu time    3.0963: real time    3.0956
    SETDIJ:  cpu time    0.0097: real time    0.0098
    EDDIAG:  cpu time   16.8912: real time   16.8882
  RMM-DIIS:  cpu time   50.8439: real time   50.9052
    ORTHCH:  cpu time    2.4859: real time    2.4889
       DOS:  cpu time    0.0135: real time    0.0143
    CHARGE:  cpu time    3.9012: real time    3.9059
    MIXING:  cpu time    0.0015: real time    0.0015
    --------------------------------------------
      LOOP:  cpu time   77.2468: real time   77.3159

 eigenvalue-minimisations  : 54058
 total energy-change (2. order) : 0.4826732E-05  (-0.4789778E-05)
 number of electron     492.9999935 magnetization
 augmentation part      320.1987702 magnetization

 DIPCOR: dipole corrections for dipol
 direction  3 min pos   175,
 dipolmoment           0.008170      0.008170      0.008170 electrons x Angstroem
 Tr[quadrupol]     -4759.793501

 energy correction for charged system         0.000000 eV
 dipol+quadrupol energy correction           -0.000019 eV
 added-field ion interaction         -0.008302 eV  (added to PSCEN)


 eigenvalues of (default mixing * dielectric matrix)
  average eigenvalue GAMMA=   0.5705
  0.9463  0.1946

  free energy =  -0.619854795495E+02  energy without entropy=  -0.619717214074E+02


--------------------------------------------------------------------------------------------------------




----------------------------------------- Iteration    9(   4)  ---------------------------------------


    POTLOK:  cpu time    3.1004: real time    3.0988
    SETDIJ:  cpu time    0.0097: real time    0.0097
    EDDIAG:  cpu time   16.9916: real time   17.0074
  RMM-DIIS:  cpu time   48.1956: real time   48.2314
    ORTHCH:  cpu time    2.4676: real time    2.5054
       DOS:  cpu time    0.0142: real time    0.0142
    CHARGE:  cpu time    3.9096: real time    3.9082
    MIXING:  cpu time    0.0015: real time    0.0015
    --------------------------------------------
      LOOP:  cpu time   74.6922: real time   74.7822

 eigenvalue-minimisations  : 50762
 total energy-change (2. order) : 0.2076449E-05  (-0.9511754E-06)
 number of electron     492.9999935 magnetization
 augmentation part      320.1995296 magnetization

 DIPCOR: dipole corrections for dipol
 direction  3 min pos   175,
 dipolmoment           0.007552      0.007552      0.007552 electrons x Angstroem
 Tr[quadrupol]     -4759.793422

 energy correction for charged system         0.000000 eV
 dipol+quadrupol energy correction           -0.000017 eV
 added-field ion interaction         -0.007674 eV  (added to PSCEN)


 eigenvalues of (default mixing * dielectric matrix)
  average eigenvalue GAMMA=   0.6047
  1.3158  0.3497  0.1485

  free energy =  -0.619854774730E+02  energy without entropy=  -0.619716882665E+02


--------------------------------------------------------------------------------------------------------




----------------------------------------- Iteration    9(   5)  ---------------------------------------


    POTLOK:  cpu time    3.0885: real time    3.0881
    SETDIJ:  cpu time    0.0097: real time    0.0096
    EDDIAG:  cpu time   17.0982: real time   17.1056
  RMM-DIIS:  cpu time   48.1724: real time   48.2545
    ORTHCH:  cpu time    2.4909: real time    2.4899
       DOS:  cpu time    0.0140: real time    0.0140
    CHARGE:  cpu time    3.8901: real time    3.9047
    MIXING:  cpu time    0.0016: real time    0.0016
    --------------------------------------------
      LOOP:  cpu time   74.7676: real time   74.8757

 eigenvalue-minimisations  : 50513
 total energy-change (2. order) : 0.7350405E-05  (-0.5220054E-06)
 number of electron     492.9999935 magnetization
 augmentation part      320.1992465 magnetization

 DIPCOR: dipole corrections for dipol
 direction  3 min pos   175,
 dipolmoment           0.007943      0.007943      0.007943 electrons x Angstroem
 Tr[quadrupol]     -4759.793814

 energy correction for charged system         0.000000 eV
 dipol+quadrupol energy correction           -0.000018 eV
 added-field ion interaction         -0.008071 eV  (added to PSCEN)


 eigenvalues of (default mixing * dielectric matrix)
  average eigenvalue GAMMA=   0.8172
  1.8603  0.9811  0.2890  0.1385

  free energy =  -0.619854701226E+02  energy without entropy=  -0.619716933757E+02


--------------------------------------------------------------------------------------------------------




----------------------------------------- Iteration    9(   6)  ---------------------------------------


    POTLOK:  cpu time    3.0310: real time    3.0315
    SETDIJ:  cpu time    0.0096: real time    0.0096
    EDDIAG:  cpu time   16.7839: real time   16.7787
  RMM-DIIS:  cpu time   48.2978: real time   48.3536
    ORTHCH:  cpu time    2.4907: real time    2.4893
       DOS:  cpu time    0.0142: real time    0.0142
    CHARGE:  cpu time    3.9123: real time    3.9108
    MIXING:  cpu time    0.0016: real time    0.0016
    --------------------------------------------
      LOOP:  cpu time   74.5434: real time   74.5951

 eigenvalue-minimisations  : 50629
 total energy-change (2. order) : 0.5110487E-06  (-0.5520630E-06)
 number of electron     492.9999935 magnetization
 augmentation part      320.1991623 magnetization

 DIPCOR: dipole corrections for dipol
 direction  3 min pos   175,
 dipolmoment           0.007852      0.007852      0.007852 electrons x Angstroem
 Tr[quadrupol]     -4759.793001

 energy correction for charged system         0.000000 eV
 dipol+quadrupol energy correction           -0.000018 eV
 added-field ion interaction         -0.007979 eV  (added to PSCEN)


 eigenvalues of (default mixing * dielectric matrix)
  average eigenvalue GAMMA=   0.8626
  2.3597  1.1195  0.1382  0.2805  0.4153

  free energy =  -0.619854696116E+02  energy without entropy=  -0.619717019558E+02


--------------------------------------------------------------------------------------------------------




----------------------------------------- Iteration    9(   7)  ---------------------------------------


    POTLOK:  cpu time    3.2750: real time    3.2876
    SETDIJ:  cpu time    0.0095: real time    0.0098
    EDDIAG:  cpu time   16.9478: real time   16.9705
  RMM-DIIS:  cpu time   48.1214: real time   48.1793
    ORTHCH:  cpu time    2.4797: real time    2.4787
       DOS:  cpu time    0.0142: real time    0.0142
    CHARGE:  cpu time    3.8430: real time    3.8416
    MIXING:  cpu time    0.0017: real time    0.0017
    --------------------------------------------
      LOOP:  cpu time   74.6959: real time   74.7895

 eigenvalue-minimisations  : 50610
 total energy-change (2. order) : 0.8071147E-06  (-0.2336535E-06)
 number of electron     492.9999935 magnetization
 augmentation part      320.1990407 magnetization

 DIPCOR: dipole corrections for dipol
 direction  3 min pos   175,
 dipolmoment           0.007878      0.007878      0.007878 electrons x Angstroem
 Tr[quadrupol]     -4759.793975

 energy correction for charged system         0.000000 eV
 dipol+quadrupol energy correction           -0.000018 eV
 added-field ion interaction         -0.008006 eV  (added to PSCEN)


 eigenvalues of (default mixing * dielectric matrix)
  average eigenvalue GAMMA=   0.8157
  2.4176  0.9714  0.7102  0.1381  0.2774  0.3795

  free energy =  -0.619854688045E+02  energy without entropy=  -0.619716897597E+02


--------------------------------------------------------------------------------------------------------




----------------------------------------- Iteration    9(   8)  ---------------------------------------


    POTLOK:  cpu time    3.1134: real time    3.1124
    SETDIJ:  cpu time    0.0096: real time    0.0096
    EDDIAG:  cpu time   16.9390: real time   16.9706
  RMM-DIIS:  cpu time   28.7119: real time   28.7164
    ORTHCH:  cpu time    2.5090: real time    2.5077
       DOS:  cpu time    0.0136: real time    0.0136
    --------------------------------------------
      LOOP:  cpu time   51.2982: real time   51.3350

 eigenvalue-minimisations  : 28243
 total energy-change (2. order) :-0.5064066E-08  (-0.1501911E-07)
 number of electron     492.9999935 magnetization
 augmentation part      320.1990407 magnetization

 DIPCOR: dipole corrections for dipol
 direction  3 min pos   175,
 dipolmoment           0.007869      0.007869      0.007869 electrons x Angstroem
 Tr[quadrupol]     -4759.793724

 energy correction for charged system         0.000000 eV
 dipol+quadrupol energy correction           -0.000018 eV
 added-field ion interaction         -0.007996 eV  (added to PSCEN)


  free energy =  -0.619854688095E+02  energy without entropy=  -0.619716935061E+02


--------------------------------------------------------------------------------------------------------




 average (electrostatic) potential at core
  the test charge radii are     1.0053  1.1806
  (the norm of the test charge is              1.0000)
       1 -43.2210       2 -43.2210       3 -43.2236       4 -43.2115       5 -43.2210
       6 -43.2115       7 -43.2115       8 -43.2237       9 -43.2236      10 -43.4958
      11 -43.4957      12 -43.5079      13 -43.4957      14 -43.5002      15 -43.4957
      16 -43.5017      17 -43.4957      18 -43.4958      19 -43.1782      20 -43.4250
      21 -43.4994      22 -43.1779      23 -43.4847      24 -43.4993      25 -43.2258
      26 -43.4849      27 -43.5081      28 -43.1781      29 -43.4248      30 -43.5178
      31 -43.4249      32 -43.4993      33 -43.1782      34 -43.4754      35 -43.5179
      36 -43.2188      37 -43.4753      38 -43.5181      39 -43.1779      40 -43.4846
      41 -43.5081      42 -43.1784      43 -43.4754      44 -43.5083      45 -54.0809



 E-fermi :   0.0637     XC(G=0):  -8.5769     alpha+bet : -5.5944


--------------------------------------------------------------------------------------------------------


 soft charge-density along one line, spin component           1
         0         1         2         3         4         5         6         7         8         9
 total charge-density along one line

 pseudopotential strength for first ion, spin component:           1
 -9.030   0.013  -0.016   0.013   0.000   0.914  -0.006   0.007
  0.013  -9.031   0.008   0.013  -0.014  -0.006   0.915  -0.004
 -0.016   0.008  -9.020   0.008  -0.000   0.007  -0.004   0.910
  0.013   0.013   0.008  -9.031   0.014  -0.006  -0.006  -0.004
  0.000  -0.014  -0.000   0.014  -9.020  -0.000   0.007   0.000
  0.914  -0.006   0.007  -0.006  -0.000   1.151   0.003  -0.003
 -0.006   0.915  -0.004  -0.006   0.007   0.003   1.151   0.002
  0.007  -0.004   0.910  -0.004   0.000  -0.003   0.002   1.153
 -0.006  -0.006  -0.004   0.915  -0.007   0.003   0.003   0.002
 -0.000   0.007   0.000  -0.007   0.910   0.000  -0.003  -0.000
 -0.004  -0.004   0.000  -0.004  -0.000   0.001   0.001  -0.000
  0.000   0.000  -0.000   0.000   0.000  -0.000  -0.000   0.000
 -0.004  -0.004   0.003   0.000   0.005   0.003   0.002  -0.002
  0.000  -0.004  -0.005  -0.004  -0.000  -0.000   0.003   0.003
 -0.004   0.000   0.003  -0.004  -0.005   0.003  -0.000  -0.002
  0.002   0.002  -0.001  -0.000  -0.002  -0.001  -0.001   0.001
 -0.000   0.002   0.002   0.002   0.000   0.000  -0.001  -0.001
  0.002  -0.000  -0.001   0.002   0.002  -0.001   0.000   0.001
 total augmentation occupancy for first ion, spin component:           1
  1.917   0.003  -0.002   0.003  -0.000  -0.024  -0.008   0.012  -0.008  -0.000   0.007   0.021   0.015   0.008   0.015  -0.003
  0.003   1.916   0.001   0.003  -0.002  -0.008  -0.024  -0.006  -0.008   0.011   0.007   0.021   0.015   0.014   0.009  -0.003
 -0.002   0.001   1.921   0.001   0.000   0.012  -0.006  -0.049  -0.006   0.000  -0.002  -0.000   0.001  -0.001   0.001   0.001
  0.003   0.003   0.001   1.916   0.002  -0.008  -0.008  -0.006  -0.024  -0.011   0.007   0.021   0.009   0.014   0.015  -0.000
 -0.000  -0.002   0.000   0.002   1.921  -0.000   0.011   0.000  -0.011  -0.049  -0.000  -0.000   0.002  -0.000  -0.002   0.002
 -0.024  -0.008   0.012  -0.008  -0.000   0.061   0.001   0.008   0.001  -0.000  -0.049   0.008   0.023   0.001   0.023  -0.001
 -0.008  -0.024  -0.006  -0.008   0.011   0.001   0.061  -0.004   0.001   0.006  -0.049   0.008   0.023   0.023   0.000  -0.001
  0.012  -0.006  -0.049  -0.006   0.000   0.008  -0.004   0.051  -0.004   0.000   0.001   0.000  -0.010   0.019  -0.010   0.001
 -0.008  -0.008  -0.006  -0.024  -0.011   0.001   0.001  -0.004   0.061  -0.006  -0.049   0.008   0.000   0.023   0.023   0.000
 -0.000   0.011   0.000  -0.011  -0.049  -0.000   0.006   0.000  -0.006   0.051   0.000  -0.000  -0.016  -0.000   0.016   0.001
  0.007   0.007  -0.002   0.007  -0.000  -0.049  -0.049   0.001  -0.049   0.000   1.258  -0.282   0.039   0.037   0.039  -0.007
  0.021   0.021  -0.000   0.021  -0.000   0.008   0.008   0.000   0.008  -0.000  -0.282   0.110  -0.028  -0.028  -0.028   0.003
  0.015   0.015   0.001   0.009   0.002   0.023   0.023  -0.010   0.000  -0.016   0.039  -0.028   0.149  -0.023  -0.023  -0.009
  0.008   0.014  -0.001   0.014  -0.000   0.001   0.023   0.019   0.023  -0.000   0.037  -0.028  -0.023   0.151  -0.023   0.001
  0.015   0.009   0.001   0.015  -0.002   0.023   0.000  -0.010   0.023   0.016   0.039  -0.028  -0.023  -0.023   0.149   0.001
 -0.003  -0.003   0.001  -0.000   0.002  -0.001  -0.001   0.001   0.000   0.001  -0.007   0.003  -0.009   0.001   0.001   0.001
 -0.000  -0.003  -0.002  -0.003  -0.000   0.000  -0.001  -0.002  -0.001  -0.000  -0.007   0.003   0.001  -0.009   0.001  -0.000
 -0.003  -0.000   0.001  -0.003  -0.002  -0.001   0.000   0.001  -0.001  -0.001  -0.007   0.003   0.001   0.001  -0.009  -0.000


------------------------ aborting loop because EDIFF is reached ----------------------------------------


    CHARGE:  cpu time    3.8733: real time    3.8715
    FORLOC:  cpu time    0.0185: real time    0.0184
    FORNL :  cpu time   22.8747: real time   22.8990
    STRESS:  cpu time   68.8149: real time   68.9064
    FORCOR:  cpu time    3.1839: real time    3.1885
    FORHAR:  cpu time    0.0333: real time    0.0333
    MIXING:  cpu time    0.0021: real time    0.0021
    OFIELD:  cpu time    0.0001: real time    0.0001

  FORCE on cell =-STRESS in cart. coord.  units (eV):
  Direction    XX          YY          ZZ          XY          YZ          ZX
  --------------------------------------------------------------------------------------
  Alpha Z  2770.01282  2770.01282  2770.01282
  Ewald   27674.75125 27675.35802 27675.60290-88145.43488-88141.75807-88144.25724
  Hartree 47328.57790 47328.83325 47328.91378-85595.54576-85593.64910-85594.93965
  E(xc)   -2804.13439 -2804.13420 -2804.13489    -0.05203    -0.05111    -0.05128
  Local  -79416.97593-79417.78560-79418.09362173732.40948173726.97109173730.67508
  n-local -1665.11530 -1665.10880 -1665.10425    -2.63890    -2.60323    -2.62770
  augment  2521.58928  2521.57077  2521.56758     4.80291     4.75423     4.78294
  Kinetic  3579.73585  3579.73942  3579.73966     9.93071     9.90434     9.92250
  Fock        0.00000     0.00000     0.00000     0.00000     0.00000     0.00000
  -------------------------------------------------------------------------------------
  Total     -11.55852   -11.51433   -11.49602     3.47153     3.56816     3.50465
  in kB     -19.90407   -19.82797   -19.79644     5.97806     6.14447     6.03510
  external pressure =      -19.84 kB  Pullay stress =        0.00 kB


 VOLUME and BASIS-vectors are now :
 -----------------------------------------------------------------------------
  energy-cutoff  :      400.00
  volume of cell :      930.40
      direct lattice vectors                 reciprocal lattice vectors
     5.412900000 -5.412900000 -0.000000000     0.123162568 -0.061581284 -0.061581284
     0.000000000  5.412900000 -5.412900000     0.061581284  0.061581284 -0.123162568
    10.584969359 10.584969359 10.584969359     0.031491195  0.031491195  0.031491195

  length of vectors
     7.654996592  7.654996592 18.333704726     0.150842724  0.150842724  0.054544350


 FORCES acting on ions
    electron-ion (+dipol)            ewald-force                    non-local-force                 convergence-correction
 -----------------------------------------------------------------------------------------------
   0.194E+04 0.194E+04 0.194E+04   -.194E+04 -.194E+04 -.194E+04   -.402E+00 -.399E+00 -.251E+00   0.122E-02 0.120E-02 0.125E-02
   0.194E+04 0.194E+04 0.194E+04   -.194E+04 -.194E+04 -.194E+04   -.401E+00 -.252E+00 -.399E+00   0.121E-02 0.125E-02 0.121E-02
   0.194E+04 0.194E+04 0.194E+04   -.194E+04 -.194E+04 -.194E+04   -.324E+00 -.398E+00 -.399E+00   0.134E-02 0.121E-02 0.120E-02
   0.194E+04 0.194E+04 0.194E+04   -.194E+04 -.194E+04 -.194E+04   -.396E+00 -.358E+00 -.396E+00   0.131E-02 0.118E-02 0.130E-02
   0.194E+04 0.194E+04 0.194E+04   -.194E+04 -.194E+04 -.194E+04   -.251E+00 -.401E+00 -.400E+00   0.125E-02 0.120E-02 0.121E-02
   0.194E+04 0.194E+04 0.194E+04   -.194E+04 -.194E+04 -.194E+04   -.395E+00 -.396E+00 -.358E+00   0.130E-02 0.130E-02 0.117E-02
   0.194E+04 0.194E+04 0.194E+04   -.194E+04 -.194E+04 -.194E+04   -.357E+00 -.398E+00 -.395E+00   0.117E-02 0.131E-02 0.130E-02
   0.194E+04 0.194E+04 0.194E+04   -.194E+04 -.194E+04 -.194E+04   -.398E+00 -.397E+00 -.325E+00   0.120E-02 0.121E-02 0.134E-02
   0.194E+04 0.194E+04 0.194E+04   -.194E+04 -.194E+04 -.194E+04   -.397E+00 -.323E+00 -.399E+00   0.120E-02 0.133E-02 0.121E-02
   0.973E+03 0.973E+03 0.971E+03   -.973E+03 -.972E+03 -.971E+03   -.330E+00 -.391E+00 -.368E+00   0.109E-02 0.105E-02 0.942E-03
   0.973E+03 0.971E+03 0.973E+03   -.973E+03 -.971E+03 -.972E+03   -.329E+00 -.368E+00 -.390E+00   0.107E-02 0.959E-03 0.105E-02
   0.972E+03 0.972E+03 0.972E+03   -.972E+03 -.972E+03 -.972E+03   -.570E+00 -.569E+00 -.570E+00   0.982E-03 0.968E-03 0.983E-03
   0.973E+03 0.973E+03 0.971E+03   -.972E+03 -.973E+03 -.971E+03   -.391E+00 -.328E+00 -.367E+00   0.108E-02 0.108E-02 0.944E-03
   0.972E+03 0.973E+03 0.973E+03   -.972E+03 -.972E+03 -.972E+03   -.381E+00 -.380E+00 -.379E+00   0.111E-02 0.109E-02 0.110E-02
   0.973E+03 0.971E+03 0.973E+03   -.972E+03 -.971E+03 -.973E+03   -.389E+00 -.367E+00 -.328E+00   0.106E-02 0.956E-03 0.107E-02
   0.971E+03 0.971E+03 0.971E+03   -.971E+03 -.971E+03 -.971E+03   -.432E+00 -.434E+00 -.433E+00   0.953E-03 0.100E-02 0.965E-03
   0.971E+03 0.973E+03 0.973E+03   -.971E+03 -.973E+03 -.972E+03   -.368E+00 -.327E+00 -.389E+00   0.935E-03 0.107E-02 0.107E-02
   0.971E+03 0.973E+03 0.973E+03   -.971E+03 -.972E+03 -.973E+03   -.368E+00 -.389E+00 -.328E+00   0.934E-03 0.106E-02 0.109E-02
   -.198E+04 -.194E+04 -.190E+04   0.198E+04 0.194E+04 0.190E+04   -.774E-01 0.669E-01 0.613E+00   -.645E-03 -.953E-03 -.160E-02
   -.102E+04 -.102E+04 -.975E+03   0.102E+04 0.102E+04 0.975E+03   -.590E+00 -.587E+00 0.243E+00   -.244E-02 -.254E-02 -.200E-02
   -.157E+02 -.989E+01 -.971E+01   0.157E+02 0.993E+01 0.974E+01   0.121E-01 -.386E-01 -.361E-01   0.880E-04 -.405E-03 -.404E-03
   -.194E+04 -.198E+04 -.190E+04   0.194E+04 0.198E+04 0.190E+04   0.668E-01 -.785E-01 0.614E+00   -.736E-03 -.480E-03 -.154E-02
   -.985E+03 -.101E+04 -.985E+03   0.985E+03 0.101E+04 0.985E+03   0.332E+00 0.763E+00 0.330E+00   -.282E-02 -.233E-02 -.280E-02
   -.995E+01 -.157E+02 -.993E+01   0.999E+01 0.157E+02 0.996E+01   -.367E-01 0.152E-01 -.366E-01   -.368E-03 0.436E-04 -.380E-03
   -.194E+04 -.194E+04 -.194E+04   0.194E+04 0.194E+04 0.194E+04   0.608E+00 0.608E+00 0.609E+00   -.176E-02 -.183E-02 -.183E-02
   -.101E+04 -.985E+03 -.985E+03   0.101E+04 0.985E+03 0.984E+03   0.764E+00 0.331E+00 0.331E+00   -.235E-02 -.285E-02 -.284E-02
   -.122E+02 -.123E+02 -.132E+02   0.122E+02 0.123E+02 0.132E+02   -.405E-01 -.421E-01 0.105E-01   -.115E-02 -.111E-02 -.129E-02
   -.198E+04 -.190E+04 -.194E+04   0.198E+04 0.190E+04 0.194E+04   -.792E-01 0.613E+00 0.654E-01   -.334E-03 -.162E-02 -.940E-03
   -.102E+04 -.976E+03 -.102E+04   0.102E+04 0.975E+03 0.102E+04   -.589E+00 0.242E+00 -.588E+00   -.226E-02 -.184E-02 -.239E-02
   -.105E+02 -.104E+02 -.105E+02   0.107E+02 0.104E+02 0.108E+02   -.231E+00 0.148E-01 -.232E+00   -.644E-03 -.869E-03 -.684E-03
   -.975E+03 -.102E+04 -.102E+04   0.975E+03 0.102E+04 0.102E+04   0.243E+00 -.591E+00 -.590E+00   -.186E-02 -.229E-02 -.236E-02
   -.984E+01 -.988E+01 -.157E+02   0.987E+01 0.992E+01 0.156E+02   -.369E-01 -.374E-01 0.149E-01   -.376E-03 -.373E-03 0.118E-03
   -.190E+04 -.198E+04 -.194E+04   0.190E+04 0.198E+04 0.194E+04   0.614E+00 -.786E-01 0.655E-01   -.164E-02 -.267E-03 -.936E-03
   -.987E+03 -.987E+03 -.989E+03   0.986E+03 0.986E+03 0.989E+03   0.440E+00 0.441E+00 0.346E+00   -.270E-02 -.272E-02 -.205E-02
   -.103E+02 -.104E+02 -.105E+02   0.103E+02 0.106E+02 0.107E+02   0.158E-01 -.231E+00 -.233E+00   -.892E-03 -.713E-03 -.641E-03
   -.194E+04 -.194E+04 -.194E+04   0.194E+04 0.194E+04 0.194E+04   0.437E+00 0.439E+00 0.438E+00   -.185E-02 -.192E-02 -.196E-02
   -.989E+03 -.987E+03 -.987E+03   0.989E+03 0.986E+03 0.986E+03   0.345E+00 0.441E+00 0.440E+00   -.200E-02 -.264E-02 -.265E-02
   -.105E+02 -.103E+02 -.103E+02   0.107E+02 0.106E+02 0.103E+02   -.232E+00 -.230E+00 0.143E-01   -.608E-03 -.718E-03 -.865E-03
   -.194E+04 -.190E+04 -.198E+04   0.194E+04 0.190E+04 0.198E+04   0.666E-01 0.615E+00 -.789E-01   -.745E-03 -.187E-02 -.221E-03
   -.985E+03 -.985E+03 -.101E+04   0.984E+03 0.985E+03 0.101E+04   0.332E+00 0.330E+00 0.762E+00   -.285E-02 -.285E-02 -.225E-02
   -.133E+02 -.122E+02 -.122E+02   0.132E+02 0.123E+02 0.122E+02   0.915E-02 -.426E-01 -.417E-01   -.128E-02 -.110E-02 -.110E-02
   -.190E+04 -.194E+04 -.198E+04   0.190E+04 0.194E+04 0.198E+04   0.612E+00 0.652E-01 -.790E-01   -.193E-02 -.956E-03 -.302E-03
   -.986E+03 -.989E+03 -.987E+03   0.986E+03 0.989E+03 0.986E+03   0.440E+00 0.346E+00 0.440E+00   -.273E-02 -.216E-02 -.282E-02
   -.120E+02 -.132E+02 -.121E+02   0.120E+02 0.132E+02 0.121E+02   -.410E-01 0.978E-02 -.416E-01   -.116E-02 -.132E-02 -.112E-02
   -.159E+04 -.159E+04 -.158E+04   0.158E+04 0.158E+04 0.158E+04   0.987E+00 0.987E+00 0.986E+00   0.445E-02 0.390E-02 0.268E-02
 -----------------------------------------------------------------------------------------------
   0.251E+01 0.251E+01 0.251E+01   0.909E-12 0.909E-11 0.250E-11   -.251E+01 -.251E+01 -.251E+01   -.132E-01 -.144E-01 -.147E-01


 POSITION                                       TOTAL-FORCE (eV/Angst)
 -----------------------------------------------------------------------------------
      1.20287     -0.60143     -0.60143         0.060156      0.062695      0.043997
      1.20287      1.20287     -2.40573         0.061702      0.042919      0.062354
      1.20287      3.00717     -4.21003         0.049043      0.056724      0.056376
      3.00717     -2.40573     -0.60143         0.057516      0.054039      0.057705
      3.00717     -0.60143     -2.40573         0.042916      0.061871      0.061888
      3.00717      1.20287     -4.21003         0.057911      0.057521      0.054149
      4.81147     -4.21003     -0.60143         0.054788      0.056007      0.058547
      4.81147     -2.40573     -2.40573         0.056424      0.056366      0.049128
      4.81147     -0.60143     -4.21003         0.057178      0.049980      0.054822
      1.20287      1.20287      1.20287        -0.071365     -0.054607     -0.042166
      1.20287      3.00717     -0.60143        -0.070464     -0.041176     -0.053724
      1.20287      4.81147     -2.40573        -0.047763     -0.049271     -0.049758
      3.00717     -0.60143      1.20287        -0.052327     -0.071716     -0.041564
      3.00717      1.20287     -0.60143        -0.056767     -0.058271     -0.057802
      3.00717      3.00717     -2.40573        -0.051979     -0.040959     -0.071831
      4.81147     -2.40573      1.20287        -0.045362     -0.046999     -0.047350
      4.81147     -0.60143     -0.60143        -0.039294     -0.071332     -0.053468
      4.81147      1.20287     -2.40573        -0.039801     -0.054042     -0.072310
     10.19434      4.78581     -0.61327         0.002333     -0.002246     -0.003614
      4.78353      2.97627      2.98251        -0.003104     -0.002665     -0.002366
      2.99007      2.99357      1.18907        -0.000662     -0.001251     -0.000870
      6.59446      8.38577     -0.61318        -0.003715      0.001941     -0.003612
      6.60314      1.18884      2.99015         0.000356     -0.001685      0.000688
      4.79993      1.18418      1.18915        -0.001227     -0.000481     -0.001229
      8.39122      1.16948      4.77646         0.000139      0.001574      0.002020
      8.40912     -0.61752      2.98999        -0.002106      0.000925      0.000781
      6.61023     -0.60877      1.19514         0.001747      0.001348      0.002991
     10.19418      1.19305      2.97943         0.001705     -0.003807     -0.002607
      4.78374      4.78783      1.17075        -0.003427     -0.002515     -0.002751
      2.99936      4.80147     -0.61150         0.002371     -0.001867      0.002356
      6.59559      2.97578      1.17041        -0.002908     -0.002223     -0.001952
      4.79973      2.99363     -0.62046        -0.001463     -0.001053     -0.001344
      8.41465      2.97274      2.97964        -0.004625      0.002237     -0.002911
      8.40495      1.18444      1.18546         0.000489      0.000574     -0.003908
      6.60769      1.19314     -0.61160        -0.001748      0.002678      0.002362
      4.78426      8.38898      1.16959         0.001455      0.002245      0.003185
      4.79840      6.59752     -0.62096        -0.004289      0.000316      0.000153
      2.99916      6.60601     -2.41630         0.002182      0.002678     -0.001780
      6.59425      6.60625      1.16656        -0.003415     -0.003876      0.002150
      6.60294      4.79535     -0.61685         0.000680      0.001053     -0.001673
      4.80578      4.80409     -2.41341         0.002693      0.001143      0.001165
      8.41441      4.78570      1.16642        -0.004392     -0.002485      0.003113
      8.40493      2.99091     -0.62131         0.000442     -0.003403      0.001202
      6.60996      2.99959     -2.41366         0.001648      0.004002      0.002064
      6.59184      4.78314      2.97683        -0.003670     -0.002906     -0.002603
 -----------------------------------------------------------------------------------
    total drift:                               -0.013784     -0.013988     -0.018306


--------------------------------------------------------------------------------------------------------



  FREE ENERGIE OF THE ION-ELECTRON SYSTEM (eV)
  ---------------------------------------------------
  free  energy   TOTEN  =       -61.98570046 eV

  energy  without entropy=      -61.97195010  energy(sigma->0) =      -61.98111700

 d Force = 0.7888641E-04[ 0.553E-04, 0.102E-03]  d Energy = 0.8331632E-04-0.443E-05
 d Force =-0.6463147E+01[-0.646E+01,-0.646E+01]  d Ewald  =-0.6463146E+01-0.115E-05


--------------------------------------------------------------------------------------------------------


    POTLOK:  cpu time    3.1127: real time    3.1119


--------------------------------------------------------------------------------------------------------


 stress matrix after NEB project (eV)
    -11.55852      3.47153      3.50465
      3.47153    -11.51433      3.56816
      3.50465      3.56816    -11.49602
  FORCES: max atom, RMS     0.005929    0.003205
  FORCE total and by dimension    0.021497    0.004625
  Stress total and by dimension   21.736359   11.558519
 Conjugate gradient step on ions:
 trial-energy change:   -0.000083  1 .order   -0.000079   -0.000102   -0.000055
  (g-gl).g = 0.167E-04      g.g   = 0.162E-04  gl.gl    = 0.543E-04
 g(Force)  = 0.162E-04   g(Stress)= 0.000E+00 ortho     =-0.202E-06
 gamma     =   0.30764
 trial     =   6.35094
 opt step  =  10.25119  (harmonic =  13.79954) maximal distance =0.00089013
 next E    =   -61.985718   (d E  =  -0.00010)


--------------------------------------------------------------------------------------------------------



 reached required accuracy - stopping structural energy minimisation
     LOOP+:  cpu time  730.8608: real time  732.3733
    4ORBIT:  cpu time    0.0000: real time    0.0000

 total amount of memory used by VASP on root node   283415. kBytes
========================================================================

   base      :      30000. kBytes
   nonlr-proj:      15092. kBytes
   fftplans  :       5374. kBytes
   grid      :       8538. kBytes
   one-center:        186. kBytes
   wavefun   :     224225. kBytes



 General timing and accounting informations for this job:
 ========================================================

                  Total CPU time used (sec):    12559.207
                            User time (sec):    11991.824
                          System time (sec):      567.384
                         Elapsed time (sec):    12580.039

                   Maximum memory used (kb):      521544.
                   Average memory used (kb):           0.

                          Minor page faults:      1651814
                          Major page faults:            5
                 Voluntary context switches:       598500
