LAMMPS (12 Dec 2018)
OMP_NUM_THREADS environment is not set. Defaulting to 1 thread. (src/comm.cpp:87)
  using 1 OpenMP thread(s) per MPI task
variable        dcdfreq index 50
variable        outputname index step4.0_minimization

units           real
boundary        p p p

newton          off
pair_style      lj/charmmfsw/coul/long 10 12
Switching to CHARMM coulomb energy conversion constant (src/KSPACE/pair_lj_charmmfsw_coul_long.cpp:70)
pair_modify     mix arithmetic
kspace_style    pppm 1e-6

atom_style      full
bond_style      harmonic
angle_style     charmm
dihedral_style  charmmfsw
special_bonds   charmm
improper_style  harmonic
timestep        1

read_data       step3_input.data
Reading data file ...
  orthogonal box = (-24.0079 -24.0079 -24.0079) to (24.0079 24.0079 24.0079)
  1 by 1 by 1 MPI processor grid
  reading atoms ...
  7200 atoms
  scanning bonds ...
  4 = max bonds/atom
  scanning angles ...
  10 = max angles/atom
  scanning dihedrals ...
  23 = max dihedrals/atom
  reading bonds ...
  7100 bonds
  reading angles ...
  13000 angles
  reading dihedrals ...
  19300 dihedrals
Finding 1-2 1-3 1-4 neighbors ...
  special bond factors lj:   0          0          0         
  special bond factors coul: 0          0          0         
  4 = max # of 1-2 neighbors
  6 = max # of 1-3 neighbors
  12 = max # of 1-4 neighbors
  14 = max # of special neighbors

neighbor        2 bin
neigh_modify    delay 5 every 1

velocity        all create 285 68171 dist gaussian
fix             1 all nvt temp 285 285 100.0

thermo          50
thermo_style    custom step time xlo xhi ylo yhi zlo zhi etotal pe ke temp press ebond eangle edihed eimp evdwl ecoul elong temp vol
dump            1 all dcd 50 step4.0_minimization.dcd
dump_modify     1 unwrap yes
write_data      step4.0_minimization.data
System init for write_data ...
PPPM initialization ...
  using 12-bit tables for long-range coulomb (src/kspace.cpp:321)
  G vector (1/distance) = 0.244516
  grid = 30 30 30
  stencil order = 5
  estimated absolute RMS force accuracy = 0.000352393
  estimated relative force accuracy = 1.0612e-06
  using double precision FFTs
  3d grid and FFT values/proc = 50653 27000
Neighbor list info ...
  update every 1 steps, delay 5 steps, check yes
  max neighbors/atom: 2000, page size: 100000
  master list distance cutoff = 14
  ghost atom cutoff = 14
  binsize = 7, bins = 7 7 7
  1 neighbor lists, perpetual/occasional/extra = 1 0 0
  (1) pair lj/charmmfsw/coul/long, perpetual
      attributes: half, newton off
      pair build: half/bin/newtoff
      stencil: half/bin/3d/newtoff
      bin: standard

min_style       cg
minimize        0.0 1.0e-8 10000 20000
WARNING: Using 'neigh_modify every 1 delay 0 check yes' setting during minimization (src/min.cpp:168)
PPPM initialization ...
  using 12-bit tables for long-range coulomb (src/kspace.cpp:321)
  G vector (1/distance) = 0.244516
  grid = 30 30 30
  stencil order = 5
  estimated absolute RMS force accuracy = 0.000352393
  estimated relative force accuracy = 1.0612e-06
  using double precision FFTs
  3d grid and FFT values/proc = 50653 27000
Setting up cg style minimization ...
  Unit style    : real
  Current step  : 0
Per MPI rank memory allocation (min/avg/max) = 56.79 | 56.79 | 56.79 Mbytes
Step Time Xlo Xhi Ylo Yhi Zlo Zhi TotEng PotEng KinEng Temp Press E_bond E_angle E_dihed E_impro E_vdwl E_coul E_long Temp Volume 
       0            0     -24.0079      24.0079     -24.0079      24.0079     -24.0079      24.0079    28234.156    22118.384    6115.7727          285   -101085.18    13519.483    5092.8782    3229.2197            0   -2672.6883    12057.378   -9107.8867          285    110701.25 
      50           50     -24.0079      24.0079     -24.0079      24.0079     -24.0079      24.0079    11592.803    5477.0298    6115.7727          285    515.24942    100.40638    805.39884    3546.1356            0   -1649.1415    11827.804   -9153.5732          285    110701.25 
     100          100     -24.0079      24.0079     -24.0079      24.0079     -24.0079      24.0079    11285.921    5170.1487    6115.7727          285    998.98103    99.804444    761.23083    3588.8948            0   -1638.8634    11536.799   -9177.7166          285    110701.25 
     150          150     -24.0079      24.0079     -24.0079      24.0079     -24.0079      24.0079    11067.778    4952.0056    6115.7727          285    979.98359    99.812065     751.4478    3573.6326            0   -1671.4344    11389.294   -9190.7462          285    110701.25 
     200          200     -24.0079      24.0079     -24.0079      24.0079     -24.0079      24.0079     10906.05    4790.2772    6115.7727          285    962.91826    101.48387    738.77608    3584.0207            0    -1728.559    11287.407   -9192.8517          285    110701.25 
     250          250     -24.0079      24.0079     -24.0079      24.0079     -24.0079      24.0079    10778.292    4662.5198    6115.7727          285    1059.0325    99.472672    722.26806    3588.6879            0   -1784.1606    11231.181   -9194.9292          285    110701.25 
     300          300     -24.0079      24.0079     -24.0079      24.0079     -24.0079      24.0079    10673.766    4557.9932    6115.7727          285    1161.3617    98.840707    715.60916     3585.095            0   -1823.7105    11179.264   -9197.1053          285    110701.25 
     350          350     -24.0079      24.0079     -24.0079      24.0079     -24.0079      24.0079    10559.995     4444.222    6115.7727          285    1137.4057    99.935551    717.50796    3586.2567            0    -1869.865     11113.21   -9202.8234          285    110701.25 
     400          400     -24.0079      24.0079     -24.0079      24.0079     -24.0079      24.0079    10456.449    4340.6759    6115.7727          285    1325.3429    97.419985    706.80138    3588.4244            0   -1899.8203    11054.808    -9206.957          285    110701.25 
     450          450     -24.0079      24.0079     -24.0079      24.0079     -24.0079      24.0079    10361.989    4246.2162    6115.7727          285    1261.5605    98.428717    703.52815    3587.5812            0   -1962.1916    11027.348   -9208.4786          285    110701.25 
     500          500     -24.0079      24.0079     -24.0079      24.0079     -24.0079      24.0079    10278.977    4163.2039    6115.7727          285    1411.6239    96.308751    695.51441    3567.7722            0   -1986.6856    10998.547   -9208.2527          285    110701.25 
     550          550     -24.0079      24.0079     -24.0079      24.0079     -24.0079      24.0079    10193.709    4077.9359    6115.7727          285    1313.2725    97.819754    694.34493    3559.2768            0   -2033.8244    10970.272   -9209.9529          285    110701.25 
     600          600     -24.0079      24.0079     -24.0079      24.0079     -24.0079      24.0079    10114.826    3999.0537    6115.7727          285    1321.2413    97.853549    688.17715    3552.8071            0   -2068.4841    10939.501   -9210.8005          285    110701.25 
     650          650     -24.0079      24.0079     -24.0079      24.0079     -24.0079      24.0079    10045.257    3929.4844    6115.7727          285    1314.6725    96.621874    679.25875    3555.6783            0     -2103.85    10914.262   -9212.4864          285    110701.25 
     700          700     -24.0079      24.0079     -24.0079      24.0079     -24.0079      24.0079    9976.6696    3860.8969    6115.7727          285    1355.5021    96.259528    679.96639    3539.6969            0   -2141.9637    10901.562   -9214.6245          285    110701.25 
     750          750     -24.0079      24.0079     -24.0079      24.0079     -24.0079      24.0079    9916.4701    3800.6974    6115.7727          285     1373.602    96.505682      675.615     3535.599            0   -2166.1671    10874.823   -9215.6784          285    110701.25 
     800          800     -24.0079      24.0079     -24.0079      24.0079     -24.0079      24.0079    9869.9633    3754.1906    6115.7727          285    1410.7668    96.275304    670.57139    3523.5795            0   -2182.4665    10861.283   -9215.0516          285    110701.25 
     850          850     -24.0079      24.0079     -24.0079      24.0079     -24.0079      24.0079    9830.9104    3715.1377    6115.7727          285    1401.7386    95.587441     671.8687    3523.4398            0      -2209.5    10846.129   -9212.3871          285    110701.25 
     900          900     -24.0079      24.0079     -24.0079      24.0079     -24.0079      24.0079    9794.4455    3678.6728    6115.7727          285     1416.168    95.088075    670.42113    3508.5543            0   -2229.1469    10846.032   -9212.2761          285    110701.25 
     950          950     -24.0079      24.0079     -24.0079      24.0079     -24.0079      24.0079    9766.8132    3651.0405    6115.7727          285     1457.336    95.493173    673.15335    3495.8125            0   -2236.5845    10835.671   -9212.5048          285    110701.25 
    1000         1000     -24.0079      24.0079     -24.0079      24.0079     -24.0079      24.0079      9743.45    3627.6773    6115.7727          285    1486.2132    95.076826    674.95694    3493.0344            0   -2247.9351    10825.861   -9213.3164          285    110701.25 
    1050         1050     -24.0079      24.0079     -24.0079      24.0079     -24.0079      24.0079    9723.8964    3608.1237    6115.7727          285    1480.2325    95.114993    672.64593    3491.7821            0   -2256.6947    10820.237   -9214.9621          285    110701.25 
    1100         1100     -24.0079      24.0079     -24.0079      24.0079     -24.0079      24.0079    9706.4162    3590.6435    6115.7727          285    1482.3739    94.527974    669.02459    3494.1355            0   -2268.8742    10817.125   -9215.2953          285    110701.25 
    1150         1150     -24.0079      24.0079     -24.0079      24.0079     -24.0079      24.0079    9690.8779    3575.1052    6115.7727          285    1498.8157    93.970527    663.89026     3497.168            0   -2275.4859    10811.501   -9215.9384          285    110701.25 
    1200         1200     -24.0079      24.0079     -24.0079      24.0079     -24.0079      24.0079    9676.0386    3560.2659    6115.7727          285    1506.7131    94.169765    663.89041    3489.7435            0   -2281.9145    10809.608   -9215.2308          285    110701.25 
    1250         1250     -24.0079      24.0079     -24.0079      24.0079     -24.0079      24.0079     9659.921    3544.1483    6115.7727          285    1572.7382    94.059518    667.52553    3477.5416            0   -2286.2403    10806.287   -9215.0249          285    110701.25 
    1300         1300     -24.0079      24.0079     -24.0079      24.0079     -24.0079      24.0079    9640.8381    3525.0654    6115.7727          285    1555.7516    94.337174    667.82371    3475.2535            0   -2294.8016    10800.818   -9218.3658          285    110701.25 
    1350         1350     -24.0079      24.0079     -24.0079      24.0079     -24.0079      24.0079    9621.5058    3505.7331    6115.7727          285    1549.2776    94.165062    665.95044    3469.3912            0   -2299.9692    10796.555   -9220.3594          285    110701.25 
    1400         1400     -24.0079      24.0079     -24.0079      24.0079     -24.0079      24.0079    9603.8555    3488.0828    6115.7727          285    1498.7446    94.561236    666.89557    3468.1714            0    -2314.362    10793.058   -9220.2418          285    110701.25 
    1450         1450     -24.0079      24.0079     -24.0079      24.0079     -24.0079      24.0079    9587.7867     3472.014    6115.7727          285    1538.4651    94.327761    666.89962    3462.8449            0   -2319.0283    10788.252   -9221.2822          285    110701.25 
    1500         1500     -24.0079      24.0079     -24.0079      24.0079     -24.0079      24.0079    9572.2624    3456.4897    6115.7727          285    1603.7155    93.647856    663.86661    3468.1099            0   -2327.0943    10780.203   -9222.2433          285    110701.25 
    1550         1550     -24.0079      24.0079     -24.0079      24.0079     -24.0079      24.0079    9555.4548    3439.6821    6115.7727          285    1588.0161    93.826796    664.62382    3466.2116            0   -2336.9078    10775.247   -9223.3191          285    110701.25 
    1600         1600     -24.0079      24.0079     -24.0079      24.0079     -24.0079      24.0079    9532.4758    3416.7031    6115.7727          285     1592.507    93.628489    664.59367    3456.0769            0    -2345.686    10771.964   -9223.8739          285    110701.25 
    1650         1650     -24.0079      24.0079     -24.0079      24.0079     -24.0079      24.0079    9516.1077     3400.335    6115.7727          285    1510.9601    94.285468    665.16597    3455.6956            0   -2361.7626    10770.679   -9223.7289          285    110701.25 
    1700         1700     -24.0079      24.0079     -24.0079      24.0079     -24.0079      24.0079    9504.0774    3388.3047    6115.7727          285    1489.5504    94.241399    663.99989    3458.5598            0     -2370.48     10766.39   -9224.4064          285    110701.25 
    1750         1750     -24.0079      24.0079     -24.0079      24.0079     -24.0079      24.0079    9493.8849    3378.1122    6115.7727          285    1524.3906    94.414967    665.57456    3458.0595            0   -2370.4083    10754.868   -9224.3967          285    110701.25 
    1800         1800     -24.0079      24.0079     -24.0079      24.0079     -24.0079      24.0079     9485.024    3369.2513    6115.7727          285    1509.6076    94.374285    666.50981    3458.9164            0   -2379.0713    10753.258    -9224.736          285    110701.25 
    1850         1850     -24.0079      24.0079     -24.0079      24.0079     -24.0079      24.0079    9476.3611    3360.5884    6115.7727          285    1528.1328    93.933383    663.81382    3459.4174            0   -2382.3003    10750.522   -9224.7982          285    110701.25 
    1900         1900     -24.0079      24.0079     -24.0079      24.0079     -24.0079      24.0079    9468.6411    3352.8684    6115.7727          285    1500.5299    94.203955    663.93378    3458.3056            0   -2386.7958    10748.087   -9224.8657          285    110701.25 
    1950         1950     -24.0079      24.0079     -24.0079      24.0079     -24.0079      24.0079    9462.1482    3346.3755    6115.7727          285     1525.859     94.38832    665.14388    3451.6176            0   -2386.1605    10746.592   -9225.2058          285    110701.25 
    2000         2000     -24.0079      24.0079     -24.0079      24.0079     -24.0079      24.0079    9456.4982    3340.7255    6115.7727          285    1582.2482    93.657928    663.74937    3448.5268            0   -2384.8507    10745.189   -9225.5468          285    110701.25 
    2050         2050     -24.0079      24.0079     -24.0079      24.0079     -24.0079      24.0079    9451.3598    3335.5871    6115.7727          285    1534.5636    94.453586    664.40659    3447.0358            0   -2391.1545    10746.625   -9225.7793          285    110701.25 
    2100         2100     -24.0079      24.0079     -24.0079      24.0079     -24.0079      24.0079    9446.5742    3330.8015    6115.7727          285    1536.7195    94.305919    664.19674    3446.4582            0   -2390.5458    10742.328    -9225.942          285    110701.25 
    2150         2150     -24.0079      24.0079     -24.0079      24.0079     -24.0079      24.0079    9441.4713    3325.6986    6115.7727          285    1547.2698    93.980513    662.41406    3445.2622            0   -2392.1156    10742.949   -9226.7914          285    110701.25 
    2200         2200     -24.0079      24.0079     -24.0079      24.0079     -24.0079      24.0079    9436.0441    3320.2714    6115.7727          285    1527.6586    94.113924    664.89696    3443.3446            0     -2398.05    10742.943   -9226.9775          285    110701.25 
    2250         2250     -24.0079      24.0079     -24.0079      24.0079     -24.0079      24.0079    9431.2661    3315.4934    6115.7727          285    1521.6125    94.291017    664.84645    3443.2185            0   -2403.3603    10742.835   -9226.3373          285    110701.25 
    2300         2300     -24.0079      24.0079     -24.0079      24.0079     -24.0079      24.0079     9426.315    3310.5423    6115.7727          285    1521.1728    94.550075    666.20465     3447.271            0   -2409.9162    10739.078   -9226.6448          285    110701.25 
    2350         2350     -24.0079      24.0079     -24.0079      24.0079     -24.0079      24.0079    9421.2916    3305.5189    6115.7727          285    1552.1263    94.072315     665.7076     3447.796            0   -2412.4734    10737.691   -9227.2741          285    110701.25 
    2400         2400     -24.0079      24.0079     -24.0079      24.0079     -24.0079      24.0079    9415.7692    3299.9965    6115.7727          285    1530.9984    94.364054    665.96167    3446.4872            0   -2415.6207    10736.254   -9227.4501          285    110701.25 
    2450         2450     -24.0079      24.0079     -24.0079      24.0079     -24.0079      24.0079    9410.3155    3294.5428    6115.7727          285    1520.2113    94.285033    665.20587    3448.7933            0   -2419.3063    10733.762   -9228.1972          285    110701.25 
    2500         2500     -24.0079      24.0079     -24.0079      24.0079     -24.0079      24.0079    9404.4142    3288.6415    6115.7727          285    1573.5842    94.005585    664.06514    3447.4996            0   -2419.4002    10731.657   -9229.1854          285    110701.25 
    2550         2550     -24.0079      24.0079     -24.0079      24.0079     -24.0079      24.0079    9397.1036    3281.3309    6115.7727          285    1608.1894    93.543047    665.59891    3445.5669            0   -2422.3929    10728.019   -9229.0045          285    110701.25 
    2600         2600     -24.0079      24.0079     -24.0079      24.0079     -24.0079      24.0079    9390.2785    3274.5058    6115.7727          285     1590.174    93.917822    666.39403    3444.6422            0   -2429.7493    10727.802   -9228.5012          285    110701.25 
    2650         2650     -24.0079      24.0079     -24.0079      24.0079     -24.0079      24.0079    9383.3282    3267.5555    6115.7727          285    1566.4343    94.377172    667.75058    3445.1406            0   -2438.6355    10728.215   -9229.2924          285    110701.25 
    2700         2700     -24.0079      24.0079     -24.0079      24.0079     -24.0079      24.0079    9376.7894    3261.0167    6115.7727          285    1586.6863     93.93494    664.62851    3449.0075            0   -2443.4103    10726.224   -9229.3681          285    110701.25 
    2750         2750     -24.0079      24.0079     -24.0079      24.0079     -24.0079      24.0079    9370.5799    3254.8072    6115.7727          285    1582.4941    93.819129    666.62969    3448.7883            0     -2451.08    10726.229   -9229.5788          285    110701.25 
    2800         2800     -24.0079      24.0079     -24.0079      24.0079     -24.0079      24.0079    9365.2623    3249.4896    6115.7727          285    1586.9221    93.569074    666.43528    3445.0224            0   -2452.8415    10726.936   -9229.6316          285    110701.25 
    2850         2850     -24.0079      24.0079     -24.0079      24.0079     -24.0079      24.0079     9360.187    3244.4143    6115.7727          285    1554.8145    93.696997    665.11331    3444.1504            0   -2456.4679    10727.883   -9229.9617          285    110701.25 
    2900         2900     -24.0079      24.0079     -24.0079      24.0079     -24.0079      24.0079    9355.1322    3239.3595    6115.7727          285    1562.6791     93.53715    664.02902    3440.4722            0   -2456.9985    10728.681   -9230.3617          285    110701.25 
    2950         2950     -24.0079      24.0079     -24.0079      24.0079     -24.0079      24.0079      9349.53    3233.7573    6115.7727          285    1573.1315    93.561361    665.52282     3438.481            0   -2456.6421    10723.495   -9230.6604          285    110701.25 
    3000         3000     -24.0079      24.0079     -24.0079      24.0079     -24.0079      24.0079    9342.8279    3227.0552    6115.7727          285    1584.0075    93.300029    663.03933    3431.1211            0   -2455.9177    10726.839   -9231.3263          285    110701.25 
    3050         3050     -24.0079      24.0079     -24.0079      24.0079     -24.0079      24.0079    9336.2388    3220.4661    6115.7727          285    1562.1494     93.64292    662.83087    3426.5253            0   -2459.2828    10728.615   -9231.8649          285    110701.25 
    3100         3100     -24.0079      24.0079     -24.0079      24.0079     -24.0079      24.0079    9329.3783    3213.6056    6115.7727          285    1555.3872    93.903795    662.83318    3420.0425            0   -2462.0794    10730.345   -9231.4399          285    110701.25 
    3150         3150     -24.0079      24.0079     -24.0079      24.0079     -24.0079      24.0079     9323.025    3207.2523    6115.7727          285    1557.4845     93.70324    659.93257    3419.0056            0   -2464.1053    10730.633   -9231.9168          285    110701.25 
    3200         3200     -24.0079      24.0079     -24.0079      24.0079     -24.0079      24.0079    9316.8757     3201.103    6115.7727          285     1586.859    93.251298    658.27293    3418.3068            0   -2464.9757    10728.765   -9232.5178          285    110701.25 
    3250         3250     -24.0079      24.0079     -24.0079      24.0079     -24.0079      24.0079    9310.1583    3194.3856    6115.7727          285    1554.3755    93.592596     659.0564    3417.6218            0   -2472.0344    10729.847   -9233.6978          285    110701.25 
    3300         3300     -24.0079      24.0079     -24.0079      24.0079     -24.0079      24.0079     9303.334    3187.5613    6115.7727          285    1560.1418    93.820916    657.25671    3416.6076            0   -2474.7128    10728.016   -9233.4269          285    110701.25 
    3350         3350     -24.0079      24.0079     -24.0079      24.0079     -24.0079      24.0079    9295.7794    3180.0067    6115.7727          285    1554.9844    93.840029    658.94017    3411.2988            0   -2478.5568    10726.915   -9232.4308          285    110701.25 
    3400         3400     -24.0079      24.0079     -24.0079      24.0079     -24.0079      24.0079     9287.738    3171.9653    6115.7727          285    1577.9465     93.44631    657.12927    3409.2185            0   -2480.0267      10724.8   -9232.6026          285    110701.25 
    3450         3450     -24.0079      24.0079     -24.0079      24.0079     -24.0079      24.0079    9280.2252    3164.4525    6115.7727          285    1534.8269    93.823362    656.57226    3413.1031            0   -2487.0642    10721.677   -9233.6589          285    110701.25 
    3500         3500     -24.0079      24.0079     -24.0079      24.0079     -24.0079      24.0079    9272.6867     3156.914    6115.7727          285     1559.641    93.559898    656.31654    3415.9832            0   -2489.5776    10714.158   -9233.5262          285    110701.25 
    3550         3550     -24.0079      24.0079     -24.0079      24.0079     -24.0079      24.0079    9265.6492    3149.8765    6115.7727          285    1601.7259    93.098891    655.82178    3412.2041            0   -2491.2932    10712.965   -9232.9206          285    110701.25 
    3600         3600     -24.0079      24.0079     -24.0079      24.0079     -24.0079      24.0079    9259.1454    3143.3727    6115.7727          285    1578.0017    93.563435    656.79718    3406.4247            0   -2494.5041    10714.761   -9233.6694          285    110701.25 
    3650         3650     -24.0079      24.0079     -24.0079      24.0079     -24.0079      24.0079    9253.3354    3137.5627    6115.7727          285     1584.552     93.69029      657.095    3407.2693            0   -2497.6676    10711.946   -9234.7702          285    110701.25 
    3700         3700     -24.0079      24.0079     -24.0079      24.0079     -24.0079      24.0079    9247.9099    3132.1373    6115.7727          285    1584.8163    93.567388    657.11972    3407.2432            0        -2501    10709.402    -9234.195          285    110701.25 
    3750         3750     -24.0079      24.0079     -24.0079      24.0079     -24.0079      24.0079    9243.0674    3127.2948    6115.7727          285    1588.5089    93.845225    657.80049    3405.9126            0   -2501.8957     10705.95   -9234.3174          285    110701.25 
    3800         3800     -24.0079      24.0079     -24.0079      24.0079     -24.0079      24.0079    9237.5649    3121.7922    6115.7727          285     1587.286    93.506283    655.67038    3407.5903            0   -2508.9475    10707.979   -9234.0066          285    110701.25 
    3850         3850     -24.0079      24.0079     -24.0079      24.0079     -24.0079      24.0079    9232.3022    3116.5295    6115.7727          285    1544.6168    93.883693    656.24001    3406.9251            0   -2515.7348    10708.921   -9233.7058          285    110701.25 
    3900         3900     -24.0079      24.0079     -24.0079      24.0079     -24.0079      24.0079    9227.0016     3111.229    6115.7727          285    1589.2994    93.494975    656.29278     3404.454            0   -2514.6029    10705.938    -9234.348          285    110701.25 
    3950         3950     -24.0079      24.0079     -24.0079      24.0079     -24.0079      24.0079    9221.6415    3105.8689    6115.7727          285    1604.7859    93.334391    657.12944    3404.4465            0   -2515.3731     10701.07   -9234.7384          285    110701.25 
    4000         4000     -24.0079      24.0079     -24.0079      24.0079     -24.0079      24.0079    9216.0802    3100.3076    6115.7727          285    1585.5788    93.487682    656.45657     3402.165            0   -2518.8382    10702.929   -9235.8925          285    110701.25 
    4050         4050     -24.0079      24.0079     -24.0079      24.0079     -24.0079      24.0079    9211.3527      3095.58    6115.7727          285    1616.0368    93.337176    656.78851    3402.4117            0   -2520.2759    10698.796   -9235.4773          285    110701.25 
    4100         4100     -24.0079      24.0079     -24.0079      24.0079     -24.0079      24.0079    9206.1931    3090.4204    6115.7727          285    1627.9167    93.371953    656.57545    3397.4491            0   -2522.6488    10700.943     -9235.27          285    110701.25 
    4150         4150     -24.0079      24.0079     -24.0079      24.0079     -24.0079      24.0079    9201.6253    3085.8526    6115.7727          285    1601.1302    93.570143    655.21443    3398.1343            0   -2526.7738    10701.021   -9235.3136          285    110701.25 
    4200         4200     -24.0079      24.0079     -24.0079      24.0079     -24.0079      24.0079    9197.8054    3082.0327    6115.7727          285    1595.6607    93.632259    656.91031    3400.1633            0   -2529.8237    10696.589   -9235.4386          285    110701.25 
    4250         4250     -24.0079      24.0079     -24.0079      24.0079     -24.0079      24.0079    9194.4402    3078.6675    6115.7727          285     1632.237    93.186537    656.01954    3401.8055            0   -2530.4213    10693.515   -9235.4381          285    110701.25 
    4300         4300     -24.0079      24.0079     -24.0079      24.0079     -24.0079      24.0079     9191.655    3075.8823    6115.7727          285    1611.8076    93.363397    656.67653    3400.9652            0    -2534.176    10694.231   -9235.1778          285    110701.25 
    4350         4350     -24.0079      24.0079     -24.0079      24.0079     -24.0079      24.0079    9189.0762    3073.3035    6115.7727          285    1605.4017    93.535635    657.14004    3399.8118            0   -2534.1882    10691.992   -9234.9876          285    110701.25 
    4400         4400     -24.0079      24.0079     -24.0079      24.0079     -24.0079      24.0079    9186.9141    3071.1414    6115.7727          285    1593.3094     93.53645     655.2925    3399.7602            0   -2534.5283    10692.323   -9235.2423          285    110701.25 
    4450         4450     -24.0079      24.0079     -24.0079      24.0079     -24.0079      24.0079    9184.9524    3069.1797    6115.7727          285    1595.6467    93.449261     654.4187    3401.3916            0   -2534.5948    10689.768   -9235.2529          285    110701.25 
    4500         4500     -24.0079      24.0079     -24.0079      24.0079     -24.0079      24.0079    9182.9566     3067.184    6115.7727          285    1610.7738    93.353914    653.73437    3401.6611            0   -2533.5728    10687.629   -9235.6219          285    110701.25 
    4550         4550     -24.0079      24.0079     -24.0079      24.0079     -24.0079      24.0079    9181.2732    3065.5005    6115.7727          285    1614.7786    93.226718    652.97601    3400.8766            0   -2533.0064    10687.245   -9235.8177          285    110701.25 
    4600         4600     -24.0079      24.0079     -24.0079      24.0079     -24.0079      24.0079    9179.6619    3063.8892    6115.7727          285    1613.3113    93.214837    653.09423    3400.1298            0   -2533.9549    10686.811   -9235.4055          285    110701.25 
    4650         4650     -24.0079      24.0079     -24.0079      24.0079     -24.0079      24.0079    9178.4577     3062.685    6115.7727          285    1614.5343    93.178829    653.18136     3400.121            0   -2535.6735    10687.174   -9235.2964          285    110701.25 
    4700         4700     -24.0079      24.0079     -24.0079      24.0079     -24.0079      24.0079    9177.4901    3061.7174    6115.7727          285    1606.8146    93.170448    653.34852    3400.2719            0   -2538.1568    10688.272   -9235.1888          285    110701.25 
    4750         4750     -24.0079      24.0079     -24.0079      24.0079     -24.0079      24.0079    9176.5036    3060.7309    6115.7727          285    1605.1973    93.269433    652.89872    3401.1253            0   -2537.8827     10686.56   -9235.2398          285    110701.25 
    4800         4800     -24.0079      24.0079     -24.0079      24.0079     -24.0079      24.0079     9175.371    3059.5983    6115.7727          285    1611.0199    93.222974    654.19632    3400.0762            0     -2537.82    10685.138   -9235.2155          285    110701.25 
    4850         4850     -24.0079      24.0079     -24.0079      24.0079     -24.0079      24.0079    9174.2162    3058.4435    6115.7727          285    1596.6354    93.389276    654.95933     3399.033            0   -2539.5204    10686.184   -9235.6021          285    110701.25 
    4900         4900     -24.0079      24.0079     -24.0079      24.0079     -24.0079      24.0079    9173.2864    3057.5137    6115.7727          285    1613.1458    93.328771    655.62359    3395.6509            0   -2537.7947     10686.25   -9235.5451          285    110701.25 
    4950         4950     -24.0079      24.0079     -24.0079      24.0079     -24.0079      24.0079    9172.4823    3056.7096    6115.7727          285    1614.8788    93.232277    655.90913    3395.3188            0   -2538.6781     10686.49   -9235.5625          285    110701.25 
    5000         5000     -24.0079      24.0079     -24.0079      24.0079     -24.0079      24.0079    9171.8616    3056.0889    6115.7727          285      1622.12    93.124664     655.2692    3395.9324            0   -2539.5473    10686.692   -9235.3824          285    110701.25 
    5050         5050     -24.0079      24.0079     -24.0079      24.0079     -24.0079      24.0079    9171.3384    3055.5657    6115.7727          285    1616.9879     93.19639     655.2895    3395.2956            0   -2540.5642    10687.803   -9235.4543          285    110701.25 
    5100         5100     -24.0079      24.0079     -24.0079      24.0079     -24.0079      24.0079    9170.9082    3055.1355    6115.7727          285    1615.5075    93.270095    655.40845      3396.11            0   -2541.1096    10687.222   -9235.7657          285    110701.25 
    5150         5150     -24.0079      24.0079     -24.0079      24.0079     -24.0079      24.0079    9170.5625    3054.7899    6115.7727          285    1619.7884    93.154869     655.1954    3396.3657            0   -2541.0094     10686.85   -9235.7665          285    110701.25 
    5200         5200     -24.0079      24.0079     -24.0079      24.0079     -24.0079      24.0079    9170.2024    3054.4297    6115.7727          285    1629.4032     93.10016    654.96819    3395.1756            0   -2540.2994    10687.558   -9236.0725          285    110701.25 
    5250         5250     -24.0079      24.0079     -24.0079      24.0079     -24.0079      24.0079    9169.8621    3054.0894    6115.7727          285    1623.7081    93.125325    654.83756    3395.3319            0   -2540.7665    10687.961   -9236.4002          285    110701.25 
    5300         5300     -24.0079      24.0079     -24.0079      24.0079     -24.0079      24.0079    9169.5047     3053.732    6115.7727          285    1625.2415    93.005121    654.15062    3396.0675            0    -2540.958        10688   -9236.5337          285    110701.25 
    5350         5350     -24.0079      24.0079     -24.0079      24.0079     -24.0079      24.0079    9169.0441    3053.2714    6115.7727          285    1625.7176    92.941253    653.81915    3396.8735            0   -2541.4248    10687.778   -9236.7162          285    110701.25 
    5400         5400     -24.0079      24.0079     -24.0079      24.0079     -24.0079      24.0079    9168.5564    3052.7838    6115.7727          285    1637.5698    92.888676     653.2272     3395.898            0   -2541.0627    10688.444   -9236.6119          285    110701.25 
    5450         5450     -24.0079      24.0079     -24.0079      24.0079     -24.0079      24.0079    9168.0866    3052.3139    6115.7727          285    1630.7868    93.083483    653.84445    3395.0597            0   -2540.8245    10687.677   -9236.5263          285    110701.25 
    5500         5500     -24.0079      24.0079     -24.0079      24.0079     -24.0079      24.0079    9167.6886    3051.9159    6115.7727          285    1626.3039    93.095947    653.84717    3395.2089            0   -2540.4362    10687.003   -9236.8032          285    110701.25 
    5550         5550     -24.0079      24.0079     -24.0079      24.0079     -24.0079      24.0079     9167.316    3051.5433    6115.7727          285    1626.6803    92.999969     653.4567    3396.2843            0    -2541.238    10687.068   -9237.0275          285    110701.25 
    5600         5600     -24.0079      24.0079     -24.0079      24.0079     -24.0079      24.0079    9166.9163    3051.1436    6115.7727          285    1619.1474    93.034576    653.47086    3396.7056            0   -2541.7098    10686.394   -9236.7516          285    110701.25 
    5650         5650     -24.0079      24.0079     -24.0079      24.0079     -24.0079      24.0079    9166.5341    3050.7614    6115.7727          285    1616.3672    93.014713    653.65514    3396.4601            0    -2542.387    10686.661   -9236.6426          285    110701.25 
    5700         5700     -24.0079      24.0079     -24.0079      24.0079     -24.0079      24.0079    9166.1232    3050.3505    6115.7727          285    1626.9979    92.880848    653.58482     3395.446            0   -2542.6142    10687.659   -9236.6061          285    110701.25 
    5750         5750     -24.0079      24.0079     -24.0079      24.0079     -24.0079      24.0079    9165.6971    3049.9245    6115.7727          285    1621.9079    92.954905    653.56084    3395.3923            0    -2544.318    10688.465   -9236.1309          285    110701.25 
    5800         5800     -24.0079      24.0079     -24.0079      24.0079     -24.0079      24.0079    9165.3438    3049.5711    6115.7727          285    1615.6543    92.951012    652.99719    3396.3882            0   -2545.5133    10688.946   -9236.1978          285    110701.25 
    5850         5850     -24.0079      24.0079     -24.0079      24.0079     -24.0079      24.0079    9165.0354    3049.2627    6115.7727          285    1621.3207    92.868901    652.66347    3396.6694            0   -2545.0958    10688.606   -9236.4498          285    110701.25 
    5900         5900     -24.0079      24.0079     -24.0079      24.0079     -24.0079      24.0079     9164.785    3049.0123    6115.7727          285    1626.7905    92.835991    652.48516    3396.5138            0   -2544.3744    10688.154   -9236.6027          285    110701.25 
    5950         5950     -24.0079      24.0079     -24.0079      24.0079     -24.0079      24.0079     9164.579    3048.8063    6115.7727          285     1637.027    92.731448    652.34127    3396.5808            0   -2544.7577    10688.254   -9236.3431          285    110701.25 
    6000         6000     -24.0079      24.0079     -24.0079      24.0079     -24.0079      24.0079    9164.3865    3048.6138    6115.7727          285    1642.7146    92.669224    652.47187    3397.0713            0   -2545.5781    10688.066   -9236.0867          285    110701.25 
    6050         6050     -24.0079      24.0079     -24.0079      24.0079     -24.0079      24.0079    9164.2096    3048.4369    6115.7727          285    1636.4505    92.720976    652.15262    3397.7188            0   -2546.6609     10688.71   -9236.2044          285    110701.25 
    6100         6100     -24.0079      24.0079     -24.0079      24.0079     -24.0079      24.0079    9164.0503    3048.2776    6115.7727          285    1628.8342    92.725744    651.74598    3398.4385            0   -2547.7283     10689.25   -9236.1547          285    110701.25 
    6150         6150     -24.0079      24.0079     -24.0079      24.0079     -24.0079      24.0079    9163.9066    3048.1339    6115.7727          285    1625.8939    92.735494    651.77222    3398.3356            0   -2548.4662    10689.739   -9235.9826          285    110701.25 
    6200         6200     -24.0079      24.0079     -24.0079      24.0079     -24.0079      24.0079    9163.7734    3048.0007    6115.7727          285    1626.8837      92.7253     651.4793    3399.2575            0   -2548.8877    10689.411   -9235.9847          285    110701.25 
    6250         6250     -24.0079      24.0079     -24.0079      24.0079     -24.0079      24.0079    9163.6672    3047.8945    6115.7727          285    1628.6961    92.687989    651.43126      3399.55            0   -2549.2547    10689.556   -9236.0757          285    110701.25 
    6300         6300     -24.0079      24.0079     -24.0079      24.0079     -24.0079      24.0079    9163.5749    3047.8022    6115.7727          285    1627.9596    92.694372    651.52623    3399.8058            0   -2549.7385    10689.661   -9236.1471          285    110701.25 
    6350         6350     -24.0079      24.0079     -24.0079      24.0079     -24.0079      24.0079    9163.4974    3047.7247    6115.7727          285    1627.0644    92.701452    651.68967    3399.4987            0    -2550.261    10690.322   -9236.2265          285    110701.25 
    6400         6400     -24.0079      24.0079     -24.0079      24.0079     -24.0079      24.0079    9163.4343    3047.6616    6115.7727          285    1628.2156    92.720204    651.85515     3399.094            0   -2550.1429    10690.356   -9236.2212          285    110701.25 
    6450         6450     -24.0079      24.0079     -24.0079      24.0079     -24.0079      24.0079    9163.3766    3047.6039    6115.7727          285    1632.6108    92.684408     651.5417     3399.028            0   -2550.0514    10690.571   -9236.1699          285    110701.25 
    6500         6500     -24.0079      24.0079     -24.0079      24.0079     -24.0079      24.0079    9163.3199    3047.5473    6115.7727          285    1634.5901    92.647384    651.25589    3399.2771            0   -2550.1366     10690.65   -9236.1469          285    110701.25 
    6550         6550     -24.0079      24.0079     -24.0079      24.0079     -24.0079      24.0079    9163.2677     3047.495    6115.7727          285    1634.9862     92.63908    651.22606    3399.6265            0   -2549.9923    10690.277   -9236.2818          285    110701.25 
    6600         6600     -24.0079      24.0079     -24.0079      24.0079     -24.0079      24.0079    9163.2105    3047.4378    6115.7727          285    1633.1433    92.608712    651.30802     3399.502            0   -2549.8659    10690.248   -9236.3632          285    110701.25 
    6650         6650     -24.0079      24.0079     -24.0079      24.0079     -24.0079      24.0079    9163.1164    3047.3437    6115.7727          285    1632.0976    92.626204    651.36614    3399.0953            0   -2549.5774    10690.243     -9236.41          285    110701.25 
    6700         6700     -24.0079      24.0079     -24.0079      24.0079     -24.0079      24.0079    9162.7926    3047.0199    6115.7727          285    1628.0864    92.603492    651.64072    3398.5845            0   -2550.1816    10690.698    -9236.325          285    110701.25 
    6750         6750     -24.0079      24.0079     -24.0079      24.0079     -24.0079      24.0079    9162.2092    3046.4365    6115.7727          285      1636.09    92.461708    651.80402     3400.239            0   -2551.5532    10689.437   -9235.9517          285    110701.25 
    6800         6800     -24.0079      24.0079     -24.0079      24.0079     -24.0079      24.0079    9161.5553    3045.7826    6115.7727          285    1650.0571    92.393859    651.62614    3399.6485            0   -2551.5578    10689.619   -9235.9473          285    110701.25 
    6850         6850     -24.0079      24.0079     -24.0079      24.0079     -24.0079      24.0079    9160.8497     3045.077    6115.7727          285    1648.2351    92.567755     652.4029    3396.4946            0   -2550.6721    10689.931   -9235.6472          285    110701.25 
    6900         6900     -24.0079      24.0079     -24.0079      24.0079     -24.0079      24.0079    9160.2582    3044.4855    6115.7727          285     1635.331    92.713028    652.78278    3397.5986            0    -2552.518    10689.879   -9235.9695          285    110701.25 
    6950         6950     -24.0079      24.0079     -24.0079      24.0079     -24.0079      24.0079    9159.5823    3043.8096    6115.7727          285     1635.469    92.625476    652.40534    3397.8444            0   -2553.9951    10691.225   -9236.2951          285    110701.25 
    7000         7000     -24.0079      24.0079     -24.0079      24.0079     -24.0079      24.0079    9158.9356    3043.1629    6115.7727          285    1647.4467    92.536029    653.41665    3397.0101            0   -2554.1943    10690.787   -9236.3923          285    110701.25 
    7050         7050     -24.0079      24.0079     -24.0079      24.0079     -24.0079      24.0079    9158.3934    3042.6207    6115.7727          285    1644.4942    92.604581    653.77549    3397.4571            0   -2554.4217    10689.783   -9236.5774          285    110701.25 
    7100         7100     -24.0079      24.0079     -24.0079      24.0079     -24.0079      24.0079    9157.9316    3042.1589    6115.7727          285    1636.7679    92.719961    653.69983    3397.9004            0   -2555.4305    10690.017   -9236.7475          285    110701.25 
    7150         7150     -24.0079      24.0079     -24.0079      24.0079     -24.0079      24.0079    9157.5175    3041.7448    6115.7727          285    1639.9791    92.648698    653.78474    3398.0778            0   -2555.9702     10689.97   -9236.7661          285    110701.25 
    7200         7200     -24.0079      24.0079     -24.0079      24.0079     -24.0079      24.0079    9157.2021    3041.4294    6115.7727          285     1645.324    92.588939    653.75197    3398.6264            0   -2555.5062    10688.863   -9236.8952          285    110701.25 
    7250         7250     -24.0079      24.0079     -24.0079      24.0079     -24.0079      24.0079     9156.905    3041.1323    6115.7727          285    1648.7826    92.521406    653.26269    3398.8593            0   -2555.7322    10689.086    -9236.865          285    110701.25 
    7300         7300     -24.0079      24.0079     -24.0079      24.0079     -24.0079      24.0079    9156.1542    3040.3815    6115.7727          285    1644.8911    92.496907      652.994    3398.2427            0   -2556.1466    10689.613   -9236.8183          285    110701.25 
    7350         7350     -24.0079      24.0079     -24.0079      24.0079     -24.0079      24.0079     9155.769    3039.9963    6115.7727          285    1642.5693    92.518768    652.92324    3398.0409            0   -2556.3938    10689.695   -9236.7879          285    110701.25 
    7400         7400     -24.0079      24.0079     -24.0079      24.0079     -24.0079      24.0079    9155.5692    3039.7965    6115.7727          285    1639.0396    92.552405    652.90481    3398.1318            0   -2556.9393    10689.852   -9236.7048          285    110701.25 
    7450         7450     -24.0079      24.0079     -24.0079      24.0079     -24.0079      24.0079    9155.4303    3039.6576    6115.7727          285    1638.2965    92.574494    652.99975    3398.1511            0   -2557.1458    10689.742   -9236.6642          285    110701.25 
    7500         7500     -24.0079      24.0079     -24.0079      24.0079     -24.0079      24.0079    9155.3235    3039.5508    6115.7727          285    1638.1486    92.546232    652.80418    3398.2206            0   -2557.4031    10690.058    -9236.675          285    110701.25 
    7550         7550     -24.0079      24.0079     -24.0079      24.0079     -24.0079      24.0079     9155.235    3039.4623    6115.7727          285    1637.3798    92.546164     652.6664    3398.1222            0   -2557.5625    10690.362   -9236.6724          285    110701.25 
    7600         7600     -24.0079      24.0079     -24.0079      24.0079     -24.0079      24.0079    9155.1687     3039.396    6115.7727          285    1635.6877    92.547654    652.59703    3398.1202            0   -2557.7356    10690.511   -9236.6445          285    110701.25 
    7650         7650     -24.0079      24.0079     -24.0079      24.0079     -24.0079      24.0079    9155.1234    3039.3507    6115.7727          285    1635.0091    92.541598    652.50873    3398.1669            0   -2557.8508    10690.609   -9236.6252          285    110701.25 
    7700         7700     -24.0079      24.0079     -24.0079      24.0079     -24.0079      24.0079    9155.0925    3039.3198    6115.7727          285    1636.4343    92.518182    652.35581    3398.1816            0   -2557.8564    10690.697   -9236.5761          285    110701.25 
    7750         7750     -24.0079      24.0079     -24.0079      24.0079     -24.0079      24.0079     9155.071    3039.2983    6115.7727          285    1636.6556    92.509405    652.32044    3398.3028            0   -2558.0082    10690.728   -9236.5539          285    110701.25 
    7800         7800     -24.0079      24.0079     -24.0079      24.0079     -24.0079      24.0079    9155.0559    3039.2832    6115.7727          285    1637.0909    92.493078    652.29866    3398.3874            0    -2558.122    10690.764   -9236.5383          285    110701.25 
    7850         7850     -24.0079      24.0079     -24.0079      24.0079     -24.0079      24.0079    9155.0439    3039.2712    6115.7727          285    1637.1554    92.489077      652.289    3398.4545            0   -2558.2288     10690.82   -9236.5527          285    110701.25 
    7857         7857     -24.0079      24.0079     -24.0079      24.0079     -24.0079      24.0079    9155.0424    3039.2697    6115.7727          285    1637.1539    92.486768    652.28749    3398.4682            0   -2558.2445    10690.827   -9236.5551          285    110701.25 
Loop time of 1357.28 on 1 procs for 7857 steps with 7200 atoms

99.9% CPU use with 1 MPI tasks x 1 OpenMP threads

Minimization stats:
  Stopping criterion = linesearch alpha is zero
  Energy initial, next-to-last, final = 
         22118.3836419      3039.26969563      3039.26969563
  Force two-norm initial, final = 3167.24 0.509175
  Force max component initial, final = 64.3221 0.0938109
  Final line search alpha, max atom move = 2.90207e-08 2.72246e-09
  Iterations, force evaluations = 7857 15762

MPI task timing breakdown:
Section |  min time  |  avg time  |  max time  |%varavg| %total
---------------------------------------------------------------
Pair    | 1213.5     | 1213.5     | 1213.5     |   0.0 | 89.41
Bond    | 45.001     | 45.001     | 45.001     |   0.0 |  3.32
Kspace  | 79.437     | 79.437     | 79.437     |   0.0 |  5.85
Neigh   | 15.854     | 15.854     | 15.854     |   0.0 |  1.17
Comm    | 0.98776    | 0.98776    | 0.98776    |   0.0 |  0.07
Output  | 0.63882    | 0.63882    | 0.63882    |   0.0 |  0.05
Modify  | 0          | 0          | 0          |   0.0 |  0.00
Other   |            | 1.872      |            |       |  0.14

Nlocal:    7200 ave 7200 max 7200 min
Histogram: 1 0 0 0 0 0 0 0 0 0
Nghost:    21990 ave 21990 max 21990 min
Histogram: 1 0 0 0 0 0 0 0 0 0
Neighs:    3.60887e+06 ave 3.60887e+06 max 3.60887e+06 min
Histogram: 1 0 0 0 0 0 0 0 0 0

Total # of neighbors = 3608866
Ave neighs/atom = 501.231
Ave special neighs/atom = 9.66667
Neighbor list builds = 125
Dangerous builds = 0

write_dump      all custom step4.0_minimization.dump id type x y z vx vy vz ix iy iz
log log.step4.0_minimization
Total wall time: 0:22:37
