LAMMPS data file via write_data, version 12 Dec 2018, timestep = 0

7200 atoms
7 atom types
7100 bonds
7 bond types
13000 angles
12 angle types
19300 dihedrals
19 dihedral types

-2.4007899999999999e+01 2.4007899999999999e+01 xlo xhi
-2.4007899999999999e+01 2.4007899999999999e+01 ylo yhi
-2.4007899999999999e+01 2.4007899999999999e+01 zlo zhi

Masses

1 1.008
2 1.008
3 1.008
4 12.011
5 12.011
6 15.999
7 15.999

Pair Coeffs # lj/charmmfsw/coul/long

1 0.035 2.38761 0.035 2.38761
2 0.024 2.38761 0.024 2.38761
3 0.046 0.400014 0.046 0.400014
4 0.056 3.58141 0.01 3.38542
5 0.078 3.65268 0.01 3.38542
6 0.1 2.93997 0.1 2.93997
7 0.1921 3.14487 0.1921 3.14487

Bond Coeffs # harmonic

1 222.5 1.53
2 222.5 1.528
3 309 1.111
4 360 1.415
5 428 1.42
6 322 1.111
7 545 0.96

Angle Coeffs # charmm

1 26.5 110.1 22.53 2.179
2 45 111.5 0 0
3 75.7 110.1 0 0
4 34.6 110.1 22.53 2.179
5 95 109.7 0 0
6 50 106 0 0
7 34.6 110.1 22.53 2.179
8 45 111.5 0 0
9 35.5 109 5.4 1.802
10 35.5 108.4 5.4 1.802
11 45.9 108.89 0 0
12 45.9 108.89 0 0

Dihedral Coeffs # charmmfsw

1 0.57 1 0 1
2 0.29 2 0 0
3 0.43 3 0 0
4 1.13 1 0 1
5 0.14 2 0 0
6 0.24 3 0 0
7 0.4 1 0 1
8 0.49 3 0 0
9 0.22 3 0 1
10 0.16 3 0 1
11 0.284 3 0 1
12 0.18 3 0 1
13 0.19 3 0 1
14 0.25 1 180 1
15 1.24 2 0 0
16 0.25 1 180 1
17 1.24 2 0 0
18 0.16 3 0 1
19 0.195 3 0 1

Atoms # full

1 1 7 -6.5000000000000002e-01 -1.3123652954299999e+01 -2.1515304439700000e+01 -9.8539625208999979e+00 1 1 1
2 1 3 4.1999999999999998e-01 -1.2225900357100002e+01 -2.1570786689900000e+01 -9.5179926240999961e+00 1 1 1
3 1 4 5.0000000000000003e-02 -1.3571343948500001e+01 -2.0109574885099999e+01 -9.6287549031999973e+00 1 1 1
4 1 1 8.9999999999999997e-02 -1.2742046354399996e+01 -1.9348726003399999e+01 -9.9530869190000004e+00 1 1 1
5 1 1 8.9999999999999997e-02 -1.4523461789199999e+01 -1.9857586533999999e+01 -1.0258822824399999e+01 1 1 1
6 1 4 -1.0000000000000000e-02 -1.3939804697199996e+01 -1.9749212176299999e+01 -8.0189824583999965e+00 1 1 1
7 1 1 8.9999999999999997e-02 -1.4000644332800000e+01 -1.8596466896099997e+01 -7.9284905728999959e+00 1 1 1
8 1 1 8.9999999999999997e-02 -1.3082011611100000e+01 -2.0126335543000000e+01 -7.3467159528999986e+00 1 1 1
9 2 6 -3.4000000000000002e-01 -1.5256044345399999e+01 -2.0316918156899998e+01 -7.5404814385999970e+00 1 1 1
10 2 4 -1.0000000000000000e-02 -1.5435921875699997e+01 -2.1804459557799998e+01 -7.3415264571999970e+00 1 1 1
11 2 1 8.9999999999999997e-02 -1.6553976545399998e+01 -2.1995276245299998e+01 -7.1037608237000001e+00 1 1 1
12 2 1 8.9999999999999997e-02 -1.5173474263999999e+01 -2.2357087488499999e+01 -8.3189656034999970e+00 1 1 1
13 2 4 -1.0000000000000000e-02 -1.4530179639200000e+01 -2.2439997640999998e+01 -6.0888244455000020e+00 1 1 1
14 2 1 8.9999999999999997e-02 -1.4915061202099999e+01 -2.3506554205699999e+01 -5.8586877826000006e+00 1 1 1
15 2 1 8.9999999999999997e-02 -1.4682933858799998e+01 -2.1781126975799999e+01 -5.1517038998999993e+00 1 1 1
16 3 6 -3.4000000000000002e-01 -1.3055156178200001e+01 -2.2525712229699998e+01 -6.4089784955000013e+00 1 1 1
17 3 4 -1.0000000000000000e-02 -1.2064320680700000e+01 -2.2886338296700000e+01 -5.3248992944999998e+00 1 1 1
18 3 1 8.9999999999999997e-02 -1.2429440717500000e+01 -2.3832751708699998e+01 -4.7714435811000016e+00 1 1 1
19 3 1 8.9999999999999997e-02 -1.1047877702099996e+01 -2.3120902168499999e+01 -5.8260274685000013e+00 1 1 1
20 3 4 -1.0000000000000000e-02 -1.1836088746199998e+01 -2.1656609759199998e+01 -4.2173298629999962e+00 1 1 1
21 3 1 8.9999999999999997e-02 -1.2823661021299998e+01 -2.1485430191099997e+01 -3.6418085302999970e+00 1 1 1
22 3 1 8.9999999999999997e-02 -1.1568968190599996e+01 -2.0688751858000000e+01 -4.7919039764000004e+00 1 1 1
23 4 6 -3.4000000000000002e-01 -1.0732205494699997e+01 -2.1949709012200000e+01 -3.2270280429999971e+00 1 1 1
24 4 4 -1.0000000000000000e-02 -1.0462492462599997e+01 -2.0984927295900000e+01 -2.0940745026000016e+00 1 1 1
25 4 1 8.9999999999999997e-02 -1.1391176010199999e+01 -2.0952342053799999e+01 -1.4065541856999957e+00 1 1 1
26 4 1 8.9999999999999997e-02 -1.0284869073899998e+01 -1.9928058902800000e+01 -2.5279892570000015e+00 1 1 1
27 4 4 -1.0000000000000000e-02 -9.1325134964999961e+00 -2.1421877972799997e+01 -1.1833585755000016e+00 1 1 1
28 4 1 8.9999999999999997e-02 -8.1884131708999988e+00 -2.1323700046599999e+01 -1.8457903189999953e+00 1 1 1
29 4 1 8.9999999999999997e-02 -9.2439134369999962e+00 -2.2527710468799999e+01 -8.6739390740000033e-01 1 1 1
30 5 6 -3.4000000000000002e-01 -8.9444302514000000e+00 -2.0568633430399998e+01 5.0185743200003685e-02 1 1 1
31 5 4 -1.0000000000000000e-02 -9.7803491155999964e+00 -2.0813267811399999e+01 1.2867145075000010e+00 1 1 1
32 5 1 8.9999999999999997e-02 -9.6945240253999998e+00 -1.9878498018599998e+01 1.9652448093000032e+00 1 1 1
33 5 1 8.9999999999999997e-02 -1.0886923072999998e+01 -2.0949293169699999e+01 9.8681420020000132e-01 1 1 1
34 5 4 -1.0000000000000000e-02 -9.2795501236999982e+00 -2.2141835297000000e+01 2.1675732157000027e+00 1 1 1
35 5 1 8.9999999999999997e-02 -9.8142890113999997e+00 -2.2131840043600000e+01 3.1931882896000019e+00 1 1 1
36 5 1 8.9999999999999997e-02 -8.1402338466999993e+00 -2.2057415808199998e+01 2.3474775847000018e+00 1 1 1
37 6 6 -3.4000000000000002e-01 -9.5668951074000006e+00 -2.3453935028499998e+01 1.4743302862000007e+00 1 1 1
38 6 4 -1.0000000000000000e-02 -1.0728940184300001e+01 2.3705501965400000e+01 1.9215463282000016e+00 1 0 1
39 6 1 8.9999999999999997e-02 -1.1684092712099996e+01 -2.3665113056599999e+01 1.9891211123000048e+00 1 1 1
40 6 1 8.9999999999999997e-02 -1.0488802156799998e+01 2.3290832862500000e+01 2.9752377145999986e+00 1 0 1
41 6 4 -1.0000000000000000e-02 -1.1009197798700001e+01 2.2417245704599999e+01 8.9701653570000417e-01 1 0 1
42 6 1 8.9999999999999997e-02 -1.1693487378599997e+01 2.1657150595499999e+01 1.4387924980999998e+00 1 0 1
43 6 1 8.9999999999999997e-02 -9.9984509091999954e+00 2.1904217494600001e+01 6.6836711639999891e-01 1 0 1
44 7 6 -3.4000000000000002e-01 -1.1658474628299999e+01 2.2798254569000001e+01 -4.1429362379999901e-01 1 0 1
45 7 4 -1.0000000000000000e-02 -1.3110822348100001e+01 2.3217860456600000e+01 -4.4642880359999992e-01 1 0 1
46 7 1 8.9999999999999997e-02 -1.3620148516999997e+01 2.2729727336900002e+01 -1.3632571244000005e+00 1 0 1
47 7 1 8.9999999999999997e-02 -1.3632928432699998e+01 2.2831207454200001e+01 5.1030960380000323e-01 1 0 1
48 7 4 -1.0000000000000000e-02 -1.3322315029400002e+01 -2.3144224163799997e+01 -5.4113793610000016e-01 1 1 1
49 7 1 8.9999999999999997e-02 -1.3110040169999998e+01 -2.2801812699999999e+01 -1.6239032460999994e+00 1 1 1
50 7 1 8.9999999999999997e-02 -1.2560579584799996e+01 -2.2632814840900000e+01 1.6300200519999919e-01 1 1 1
51 8 6 -3.4000000000000002e-01 -1.4707091675599997e+01 -2.2691210241800000e+01 -1.3638641969999554e-01 1 1 1
52 8 4 -1.0000000000000000e-02 -1.5921487353899998e+01 -2.3243966090199997e+01 -8.4622911369999798e-01 1 1 1
53 8 1 8.9999999999999997e-02 -1.5777387725899999e+01 -2.3117119573499998e+01 -1.9871272330999972e+00 1 1 1
54 8 1 8.9999999999999997e-02 -1.6017155925699999e+01 2.3644949418400000e+01 -6.0683256649999606e-01 1 0 1
55 8 4 -1.0000000000000000e-02 -1.7335435631899998e+01 -2.2476847022199998e+01 -4.0048877639999603e-01 1 1 1
56 8 1 8.9999999999999997e-02 -1.8204610249399998e+01 -2.2916770502900000e+01 -1.0234518773999994e+00 1 1 1
57 8 1 8.9999999999999997e-02 -1.7241789124499999e+01 -2.1353222258899997e+01 -6.5144738010000225e-01 1 1 1
58 9 6 -3.4000000000000002e-01 -1.7669905557800000e+01 -2.2650058394100000e+01 1.0644065526999995e+00 1 1 1
59 9 4 -1.0000000000000000e-02 -1.7340333144299997e+01 -2.1553542205999999e+01 2.0535552799000030e+00 1 1 1
60 9 1 8.9999999999999997e-02 -1.7415724605799998e+01 -2.1995250525800000e+01 3.1204412192000035e+00 1 1 1
61 9 1 8.9999999999999997e-02 -1.6258908383999998e+01 -2.1188590791399999e+01 1.8793050466000025e+00 1 1 1
62 9 4 -1.0000000000000000e-02 -1.8385866733699999e+01 -2.0253870702099999e+01 1.9466200990000004e+00 1 1 1
63 9 1 8.9999999999999997e-02 -1.8166276601200000e+01 -1.9523002843400000e+01 2.8149124673999992e+00 1 1 1
64 9 1 8.9999999999999997e-02 -1.9468021300000000e+01 -2.0645982666500000e+01 2.0569412294999978e+00 1 1 1
65 10 6 -3.4000000000000002e-01 -1.8246875959799997e+01 -1.9502591239999997e+01 6.4239101780000141e-01 1 1 1
66 10 4 -1.0000000000000000e-02 -1.9402146137999999e+01 -1.8680999838599998e+01 1.0628149010000243e-01 1 1 1
67 10 1 8.9999999999999997e-02 -1.9781112682800000e+01 -1.7989461654399999e+01 9.5616267679999822e-01 1 1 1
68 10 1 8.9999999999999997e-02 -1.8986116896199999e+01 -1.8001689549100000e+01 -7.4074144989999979e-01 1 1 1
69 10 5 -2.7000000000000002e-01 -2.0662749650300000e+01 -1.9597199236500000e+01 -4.8423610969999942e-01 1 1 1
70 10 2 8.9999999999999997e-02 -2.1093855120099999e+01 -2.0253709590600000e+01 3.4846659010000280e-01 1 1 1
71 10 2 8.9999999999999997e-02 -2.1488096004199999e+01 -1.8913095210300000e+01 -8.8409873500000202e-01 1 1 1
72 10 2 8.9999999999999997e-02 -2.0289968719999997e+01 -2.0269497898399997e+01 -1.3327273778999995e+00 1 1 1
73 1 7 -6.5000000000000002e-01 1.1898060386099999e+01 -1.4675632586699997e+01 5.0497669909000003e+00 0 1 0
74 1 3 4.1999999999999998e-01 1.2241831402900001e+01 -1.5572123562199998e+01 5.0965173817000000e+00 0 1 0
75 1 4 5.0000000000000003e-02 1.2720876502499999e+01 -1.3861859610700002e+01 5.9914323389000002e+00 0 1 0
76 1 1 8.9999999999999997e-02 1.3862466900399999e+01 -1.4084558642899999e+01 5.8510611524999998e+00 0 1 0
77 1 1 8.9999999999999997e-02 1.2576719512200000e+01 -1.2714956382399997e+01 5.8084345687000001e+00 0 1 0
78 1 4 -1.0000000000000000e-02 1.2375703073000000e+01 -1.4139199411500002e+01 7.6216663962000002e+00 0 1 0
79 1 1 8.9999999999999997e-02 1.3219035410100000e+01 -1.3648538750699998e+01 8.2445390198999995e+00 0 1 0
80 1 1 8.9999999999999997e-02 1.2391667350100001e+01 -1.5275967152900002e+01 7.8156676752000003e+00 0 1 0
81 2 6 -3.4000000000000002e-01 1.1060555102800000e+01 -1.3557551558599997e+01 8.0848089233000007e+00 0 1 0
82 2 4 -1.0000000000000000e-02 9.7444762604000008e+00 -1.4101693315299997e+01 7.5762890258000004e+00 0 1 0
83 2 1 8.9999999999999997e-02 8.8961523737999997e+00 -1.3488549649100001e+01 8.0742411308000008e+00 0 1 0
84 2 1 8.9999999999999997e-02 9.6760927877000000e+00 -1.3952395399200000e+01 6.4332804468999996e+00 0 1 0
85 2 4 -1.0000000000000000e-02 9.4941642368999997e+00 -1.5714322098499999e+01 7.9347154425999999e+00 0 1 0
86 2 1 8.9999999999999997e-02 8.3703785512000000e+00 -1.5951217845800002e+01 7.7963871727000003e+00 0 1 0
87 2 1 8.9999999999999997e-02 9.7792602725000002e+00 -1.5897086518700000e+01 9.0396451831999993e+00 0 1 0
88 3 6 -3.4000000000000002e-01 1.0288581147000000e+01 -1.6645498392299999e+01 7.0454273588999996e+00 0 1 0
89 3 4 -1.0000000000000000e-02 1.0416581381000000e+01 -1.8108393674999999e+01 7.4029823624000004e+00 0 1 0
90 3 1 8.9999999999999997e-02 9.3959073772000004e+00 -1.8491824899099999e+01 7.7880908181999997e+00 0 1 0
91 3 1 8.9999999999999997e-02 1.0697646772800001e+01 -1.8700676029499999e+01 6.4502083622999997e+00 0 1 0
92 3 4 -1.0000000000000000e-02 1.1579108674500000e+01 -1.8394554109799998e+01 8.5685885684999992e+00 0 1 0
93 3 1 8.9999999999999997e-02 1.1399389561100000e+01 -1.7664227828100000e+01 9.4485261962999996e+00 0 1 0
94 3 1 8.9999999999999997e-02 1.2623101462499999e+01 -1.8179239150299999e+01 8.1225178246999992e+00 0 1 0
95 4 6 -3.4000000000000002e-01 1.1547319004700000e+01 -1.9802278090799998e+01 9.1161709444000003e+00 0 1 0
96 4 4 -1.0000000000000000e-02 1.1972865694599999e+01 -2.0968158424300000e+01 8.2520038969999998e+00 0 1 0
97 4 1 8.9999999999999997e-02 1.3077045086600000e+01 -2.0831434866500000e+01 7.9414590329000001e+00 0 1 0
98 4 1 8.9999999999999997e-02 1.1315860915700000e+01 -2.0989528631099997e+01 7.3012047052000000e+00 0 1 0
99 4 4 -1.0000000000000000e-02 1.1807686992700001e+01 -2.2426603315500000e+01 9.0498615745999995e+00 0 1 0
100 4 1 8.9999999999999997e-02 1.2030876086499999e+01 -2.3287675969100000e+01 8.3119429415999999e+00 0 1 0
101 4 1 8.9999999999999997e-02 1.0714791422599999e+01 -2.2520470481400000e+01 9.4129360935000008e+00 0 1 0
102 5 6 -3.4000000000000002e-01 1.2753588259000001e+01 -2.2540221936300000e+01 1.0221854618400000e+01 0 1 0
103 5 4 -1.0000000000000000e-02 1.2306769816999999e+01 -2.3171100437400000e+01 1.1519791906200000e+01 0 1 0
104 5 1 8.9999999999999997e-02 1.1887125007600000e+01 2.3788761384600001e+01 1.1310260605300000e+01 0 0 0
105 5 1 8.9999999999999997e-02 1.3231295048500000e+01 -2.3274133076300000e+01 1.2207413716600000e+01 0 1 0
106 5 4 -1.0000000000000000e-02 1.1150557497599999e+01 -2.2273702949899999e+01 1.2327415631899999e+01 0 1 0
107 5 1 8.9999999999999997e-02 1.0975329951499999e+01 -2.2743440915899999e+01 1.3369310603300001e+01 0 1 0
108 5 1 8.9999999999999997e-02 1.0160450523000000e+01 -2.2326439838099997e+01 1.1731005602500000e+01 0 1 0
109 6 6 -3.4000000000000002e-01 1.1519388287900000e+01 -2.0817254156299999e+01 1.2493869729100000e+01 0 1 0
110 6 4 -1.0000000000000000e-02 1.2773515119600001e+01 -2.0412919381100000e+01 1.3234857388300000e+01 0 1 0
111 6 1 8.9999999999999997e-02 1.3300003497000001e+01 -2.1343984544300000e+01 1.3668735084200000e+01 0 1 0
112 6 1 8.9999999999999997e-02 1.2465516707600001e+01 -1.9721370220799997e+01 1.4111085175900000e+01 0 1 0
113 6 4 -1.0000000000000000e-02 1.3845325565800000e+01 -1.9576633355799999e+01 1.2261394233600001e+01 0 1 0
114 6 1 8.9999999999999997e-02 1.4686722818100000e+01 -1.9143457332999997e+01 1.2925641186800000e+01 0 1 0
115 6 1 8.9999999999999997e-02 1.3277546619000001e+01 -1.8697394047899998e+01 1.1767820821300001e+01 0 1 0
116 7 6 -3.4000000000000002e-01 1.4459681881900000e+01 -2.0425466646200000e+01 1.1171377710200000e+01 0 1 0
117 7 4 -1.0000000000000000e-02 1.5878434826099999e+01 -2.0933840141999998e+01 1.1299223083299999e+01 0 1 0
118 7 1 8.9999999999999997e-02 1.6142818149200000e+01 -2.1526131717900000e+01 1.0340988834299999e+01 0 1 0
119 7 1 8.9999999999999997e-02 1.6593820188100000e+01 -2.0030503125099997e+01 1.1379361377100000e+01 0 1 0
120 7 4 -1.0000000000000000e-02 1.6127347234999998e+01 -2.1923807303099998e+01 1.2620428278000000e+01 0 1 0
121 7 1 8.9999999999999997e-02 1.5440012482400000e+01 -2.2847823430599998e+01 1.2523863829100000e+01 0 1 0
122 7 1 8.9999999999999997e-02 1.5837207276099999e+01 -2.1344771456200000e+01 1.3578746827800000e+01 0 1 0
123 8 6 -3.4000000000000002e-01 1.7555122945899999e+01 -2.2402403488899999e+01 1.2758484096900000e+01 0 1 0
124 8 4 -1.0000000000000000e-02 1.8668972352299999e+01 -2.1402327651699999e+01 1.2971026779200001e+01 0 1 0
125 8 1 8.9999999999999997e-02 1.8828048331100000e+01 -2.0818764062499998e+01 1.1984417251600000e+01 0 1 0
126 8 1 8.9999999999999997e-02 1.8357606504400000e+01 -2.0655550126999998e+01 1.3796413418100000e+01 0 1 0
127 8 4 -1.0000000000000000e-02 2.0117176869900000e+01 -2.2111099524800000e+01 1.3407604904999999e+01 0 1 0
128 8 1 8.9999999999999997e-02 2.0949560457800001e+01 -2.1310192748799999e+01 1.3317965453099999e+01 0 1 0
129 8 1 8.9999999999999997e-02 2.0357241444800000e+01 -2.2970358145099997e+01 1.2675143980700000e+01 0 1 0
130 9 6 -3.4000000000000002e-01 2.0127395502700001e+01 -2.2628859004699997e+01 1.4828175641000000e+01 0 1 0
131 9 4 -1.0000000000000000e-02 1.9431090476700000e+01 -2.3922836816899999e+01 1.5182324641899999e+01 0 1 0
132 9 1 8.9999999999999997e-02 1.9279916849300001e+01 -2.3939650031699998e+01 1.6330894089099999e+01 0 1 0
133 9 1 8.9999999999999997e-02 1.8394246736100001e+01 -2.3960798405700000e+01 1.4677142287700001e+01 0 1 0
134 9 4 -1.0000000000000000e-02 2.0302070542500001e+01 2.2729432118700000e+01 1.4762693354700000e+01 0 0 0
135 9 1 8.9999999999999997e-02 1.9795352248299999e+01 2.1809590036700001e+01 1.5248891415499999e+01 0 0 0
136 9 1 8.9999999999999997e-02 2.1371321764099999e+01 2.2832356315199998e+01 1.5189192849499999e+01 0 0 0
137 10 6 -3.4000000000000002e-01 2.0378791999000001e+01 2.2499748396899999e+01 1.3271495590400001e+01 0 0 0
138 10 4 -1.0000000000000000e-02 2.1197393697799999e+01 2.1346268441399999e+01 1.2721346922800000e+01 0 0 0
139 10 1 8.9999999999999997e-02 2.0862051433300000e+01 2.0373374483100001e+01 1.3260241230000000e+01 0 0 0
140 10 1 8.9999999999999997e-02 2.0927974208199998e+01 2.1233704909099998e+01 1.1595938810500000e+01 0 0 0
141 10 5 -2.7000000000000002e-01 2.2845157606800001e+01 2.1536820037599998e+01 1.2879293187700000e+01 0 0 0
142 10 2 8.9999999999999997e-02 2.3126113116900001e+01 2.1632763513400000e+01 1.3984515467500000e+01 0 0 0
143 10 2 8.9999999999999997e-02 2.3383282699799999e+01 2.0628552378999998e+01 1.2436129325900000e+01 0 0 0
144 10 2 8.9999999999999997e-02 2.3184470668399999e+01 2.2478542486399999e+01 1.2323848640100000e+01 0 0 0
145 1 7 -6.5000000000000002e-01 1.7670889385799999e+01 -1.7803424234300000e+01 1.0359637348400000e+01 0 1 0
146 1 3 4.1999999999999998e-01 1.7647230156599999e+01 -1.8758825486799999e+01 1.0479006855800000e+01 0 1 0
147 1 4 5.0000000000000003e-02 1.6381614343599999e+01 -1.7285462469199999e+01 1.0885423314400001e+01 0 1 0
148 1 1 8.9999999999999997e-02 1.5474027499100000e+01 -1.7806828487799997e+01 1.0354206352900000e+01 0 1 0
149 1 1 8.9999999999999997e-02 1.6266087690500001e+01 -1.7498225673299999e+01 1.2033317796800000e+01 0 1 0
150 1 4 -1.0000000000000000e-02 1.6155740015999999e+01 -1.5625558818499997e+01 1.0673808585000000e+01 0 1 0
151 1 1 8.9999999999999997e-02 1.5041216489400000e+01 -1.5389411854999999e+01 1.0873524453700000e+01 0 1 0
152 1 1 8.9999999999999997e-02 1.6397881064800000e+01 -1.5361640683200001e+01 9.5765459043999996e+00 0 1 0
153 2 6 -3.4000000000000002e-01 1.6985195267999998e+01 -1.4765346056299997e+01 1.1600049223499999e+01 0 1 0
154 2 4 -1.0000000000000000e-02 1.8494256259600000e+01 -1.4788033938299996e+01 1.1530131054700000e+01 0 1 0
155 2 1 8.9999999999999997e-02 1.8892051288600001e+01 -1.5289808074299998e+01 1.2494175756200001e+01 0 1 0
156 2 1 8.9999999999999997e-02 1.8835972054700001e+01 -1.5410149720000000e+01 1.0618622580000000e+01 0 1 0
157 2 4 -1.0000000000000000e-02 1.9173024452600000e+01 -1.3266336860999999e+01 1.1404956556700000e+01 0 1 0
158 2 1 8.9999999999999997e-02 2.0235880255100000e+01 -1.3310013221200002e+01 1.1864140208700000e+01 0 1 0
159 2 1 8.9999999999999997e-02 1.8541097802700001e+01 -1.2517817106199999e+01 1.2016788521800001e+01 0 1 0
160 3 6 -3.4000000000000002e-01 1.9315426844099999e+01 -1.2763037233799999e+01 9.9835456999000005e+00 0 1 0
161 3 4 -1.0000000000000000e-02 1.8160026110499999e+01 -1.2839043356099999e+01 9.0146901502999999e+00 0 1 0
162 3 1 8.9999999999999997e-02 1.8506651632299999e+01 -1.2398099299199998e+01 8.0006159940000003e+00 0 1 0
163 3 1 8.9999999999999997e-02 1.7888770981000000e+01 -1.3949590420199996e+01 8.8485391496000005e+00 0 1 0
164 3 4 -1.0000000000000000e-02 1.6794420142800000e+01 -1.2016946568800002e+01 9.5091644107000004e+00 0 1 0
165 3 1 8.9999999999999997e-02 1.7062776560300001e+01 -1.0903940676100000e+01 9.6655753538999996e+00 0 1 0
166 3 1 8.9999999999999997e-02 1.6442791002100002e+01 -1.2453446715200002e+01 1.0519645067900001e+01 0 1 0
167 4 6 -3.4000000000000002e-01 1.5648956897400000e+01 -1.2127246929800002e+01 8.5243076202000001e+00 0 1 0
168 4 4 -1.0000000000000000e-02 1.5666169501300001e+01 -1.1316156809900001e+01 7.2511060948999999e+00 0 1 0
169 4 1 8.9999999999999997e-02 1.4811668851300000e+01 -1.1689775344699996e+01 6.5654659043999999e+00 0 1 0
170 4 1 8.9999999999999997e-02 1.6673240563699999e+01 -1.1485041784899998e+01 6.7078439677999997e+00 0 1 0
171 4 4 -1.0000000000000000e-02 1.5454341140300000e+01 -9.6836686432000008e+00 7.5318597083999999e+00 0 1 0
172 4 1 8.9999999999999997e-02 1.6283705924900001e+01 -9.3202128132000013e+00 8.2507774964999996e+00 0 1 0
173 4 1 8.9999999999999997e-02 1.4427088341499999e+01 -9.5307528195000017e+00 8.0413143025000000e+00 0 1 0
174 5 6 -3.4000000000000002e-01 1.5502171465400000e+01 -8.8489767228999980e+00 6.2724305583000000e+00 0 1 0
175 5 4 -1.0000000000000000e-02 1.5316650128199999e+01 -7.3511974154999962e+00 6.3482212536000002e+00 0 1 0
176 5 1 8.9999999999999997e-02 1.5123066934600001e+01 -6.9632057359999990e+00 5.2738547576999997e+00 0 1 0
177 5 1 8.9999999999999997e-02 1.4390668906500000e+01 -7.1099232190999970e+00 6.9949610124000001e+00 0 1 0
178 5 4 -1.0000000000000000e-02 1.6640938579499998e+01 -6.5342071354999973e+00 6.9609268148999996e+00 0 1 0
179 5 1 8.9999999999999997e-02 1.6525040793199999e+01 -5.4084738900999980e+00 6.7193627554999997e+00 0 1 0
180 5 1 8.9999999999999997e-02 1.7591921077799999e+01 -6.9241986104999995e+00 6.4296518149999997e+00 0 1 0
181 6 6 -3.4000000000000002e-01 1.6817230262300001e+01 -6.6944548887999957e+00 8.4547470243999996e+00 0 1 0
182 6 4 -1.0000000000000000e-02 1.6030154608800000e+01 -5.8234606161000002e+00 9.4081779582999996e+00 0 1 0
183 6 1 8.9999999999999997e-02 1.4901669540500000e+01 -5.9338021073999982e+00 9.1903320108000006e+00 0 1 0
184 6 1 8.9999999999999997e-02 1.6334042127800000e+01 -4.7199724387999993e+00 9.2304735681000007e+00 0 1 0
185 6 4 -1.0000000000000000e-02 1.6318272980400000e+01 -6.1941164642000004e+00 1.1011729590900000e+01 0 1 0
186 6 1 8.9999999999999997e-02 1.5930718358200000e+01 -5.3253169902000010e+00 1.1670067277999999e+01 0 1 0
187 6 1 8.9999999999999997e-02 1.7460352498799999e+01 -6.2898905838999966e+00 1.1165693643899999e+01 0 1 0
188 7 6 -3.4000000000000002e-01 1.5664591585400000e+01 -7.4740120035000004e+00 1.1478896152500001e+01 0 1 0
189 7 4 -1.0000000000000000e-02 1.4169655347400001e+01 -7.5270596566999970e+00 1.1705750407200000e+01 0 1 0
190 7 1 8.9999999999999997e-02 1.3975498170900000e+01 -8.0380211939000006e+00 1.2725695867300001e+01 0 1 0
191 7 1 8.9999999999999997e-02 1.3746477102800000e+01 -6.4519258211999997e+00 1.1747112190299999e+01 0 1 0
192 7 4 -1.0000000000000000e-02 1.3364700134800000e+01 -8.3825906375999963e+00 1.0518965030700000e+01 0 1 0
193 7 1 8.9999999999999997e-02 1.3757257768400001e+01 -9.4703846171999970e+00 1.0514341715700001e+01 0 1 0
194 7 1 8.9999999999999997e-02 1.3601709017299999e+01 -7.9006369401000001e+00 9.4944158307999995e+00 0 1 0
195 8 6 -3.4000000000000002e-01 1.1862370500899999e+01 -8.4059035084999962e+00 1.0694332415400000e+01 0 1 0
196 8 4 -1.0000000000000000e-02 1.1254921965399999e+01 -9.0242044971999960e+00 1.1932347091300000e+01 0 1 0
197 8 1 8.9999999999999997e-02 1.1697332679900001e+01 -1.0084111958199998e+01 1.2073489599800000e+01 0 1 0
198 8 1 8.9999999999999997e-02 1.1535525914500001e+01 -8.3794511685999993e+00 1.2849890247999999e+01 0 1 0
199 8 4 -1.0000000000000000e-02 9.5910131825999994e+00 -9.1554038164999980e+00 1.1857669718700000e+01 0 1 0
200 8 1 8.9999999999999997e-02 9.2313168954999991e+00 -9.7194146650000022e+00 1.2803250615900000e+01 0 1 0
201 8 1 8.9999999999999997e-02 9.3032568661999999e+00 -9.7794524987999978e+00 1.0929916806600000e+01 0 1 0
202 9 6 -3.4000000000000002e-01 8.8853617068999995e+00 -7.8191373416999994e+00 1.1811376560699999e+01 0 1 0
203 9 4 -1.0000000000000000e-02 8.7085572941000002e+00 -7.0941535840999990e+00 1.0495474151500000e+01 0 1 0
204 9 1 8.9999999999999997e-02 8.4570917439999995e+00 -5.9883705531999993e+00 1.0729683261900000e+01 0 1 0
205 9 1 8.9999999999999997e-02 9.6945535305000003e+00 -7.1269975455999983e+00 9.8970577951000003e+00 0 1 0
206 9 4 -1.0000000000000000e-02 7.4728175292000003e+00 -7.7244090936000021e+00 9.5629908841999995e+00 0 1 0
207 9 1 8.9999999999999997e-02 7.2744415782000003e+00 -7.0093308884999956e+00 8.6759243232000003e+00 0 1 0
208 9 1 8.9999999999999997e-02 6.5179804712999996e+00 -7.7782421228999965e+00 1.0213000903299999e+01 0 1 0
209 10 6 -3.4000000000000002e-01 7.7835299361999999e+00 -9.0974351475000006e+00 9.0122008531999995e+00 0 1 0
210 10 4 -1.0000000000000000e-02 6.6645586335000004e+00 -1.0097373576899997e+01 8.7889661098000005e+00 0 1 0
211 10 1 8.9999999999999997e-02 5.8329855378000000e+00 -9.5815669030999970e+00 8.1644478449999998e+00 0 1 0
212 10 1 8.9999999999999997e-02 7.0942137868000001e+00 -1.0968788296500001e+01 8.1511536733999996e+00 0 1 0
213 10 5 -2.7000000000000002e-01 6.0200369268999996e+00 -1.0707193176799997e+01 1.0199930505299999e+01 0 1 0
214 10 2 8.9999999999999997e-02 5.6221574157000003e+00 -9.8534329889999981e+00 1.0850318588600000e+01 0 1 0
215 10 2 8.9999999999999997e-02 5.1604000112000001e+00 -1.1423674225399999e+01 9.9639432890999995e+00 0 1 0
216 10 2 8.9999999999999997e-02 6.8276941748000004e+00 -1.1273177540299997e+01 1.0781696024100000e+01 0 1 0
217 1 7 -6.5000000000000002e-01 -2.3767859673400000e+01 -1.3158880546199995e+01 -2.2089307498099998e+01 1 1 1
218 1 3 4.1999999999999998e-01 -2.3857021283999998e+01 -1.4115480030999997e+01 -2.2097417040499998e+01 1 1 1
219 1 4 5.0000000000000003e-02 -2.3193333291999998e+01 -1.2804527295800000e+01 -2.0758059845700000e+01 1 1 1
220 1 1 8.9999999999999997e-02 -2.2275409885300000e+01 -1.3486272979199995e+01 -2.0502887125899999e+01 1 1 1
221 1 1 8.9999999999999997e-02 -2.2809433991899997e+01 -1.1699542474899999e+01 -2.0736078973999998e+01 1 1 1
222 1 4 -1.0000000000000000e-02 2.3737879237500000e+01 -1.2968303621600000e+01 -1.9473014470099997e+01 0 1 1
223 1 1 8.9999999999999997e-02 -2.3672941723399997e+01 -1.2839668353199997e+01 -1.8494155581799998e+01 1 1 1
224 1 1 8.9999999999999997e-02 2.3295796416100000e+01 -1.4032819453300000e+01 -1.9493774978299999e+01 0 1 1
225 2 6 -3.4000000000000002e-01 2.2625408628100001e+01 -1.1946476060400002e+01 -1.9464621950700000e+01 0 1 1
226 2 4 -1.0000000000000000e-02 2.1480787269299999e+01 -1.2033384526399999e+01 -2.0448384762299998e+01 0 1 1
227 2 1 8.9999999999999997e-02 2.0832097796700001e+01 -1.1081527147799996e+01 -2.0315612706400000e+01 0 1 1
228 2 1 8.9999999999999997e-02 2.1890157235099998e+01 -1.2043748341499999e+01 -2.1527482657600000e+01 0 1 1
229 2 4 -1.0000000000000000e-02 2.0495119786899998e+01 -1.3362520983799996e+01 -2.0220499383400000e+01 0 1 1
230 2 1 8.9999999999999997e-02 1.9518113164300001e+01 -1.3200832393299997e+01 -2.0819497607599999e+01 0 1 1
231 2 1 8.9999999999999997e-02 2.0234708445900001e+01 -1.3442053745700001e+01 -1.9098257648599997e+01 0 1 1
232 3 6 -3.4000000000000002e-01 2.1122991042199999e+01 -1.4660314669599998e+01 -2.0677424842999997e+01 0 1 1
233 3 4 -1.0000000000000000e-02 2.0382710481499998e+01 -1.5963848072699996e+01 -2.0484095474699998e+01 0 1 1
234 3 1 8.9999999999999997e-02 1.9276002671800001e+01 -1.5811588403700000e+01 -2.0777392977999998e+01 0 1 1
235 3 1 8.9999999999999997e-02 2.0846160488199999e+01 -1.6755384515299998e+01 -2.1189101328400000e+01 0 1 1
236 3 4 -1.0000000000000000e-02 2.0444206314300001e+01 -1.6548870162400000e+01 -1.8920662746799998e+01 0 1 1
237 3 1 8.9999999999999997e-02 2.0072219035900002e+01 -1.5732977403199996e+01 -1.8192767685200000e+01 0 1 1
238 3 1 8.9999999999999997e-02 2.1545339103700002e+01 -1.6796191082299998e+01 -1.8665537599299999e+01 0 1 1
239 4 6 -3.4000000000000002e-01 1.9612983437000000e+01 -1.7798426605600000e+01 -1.8732509962900000e+01 0 1 1
240 4 4 -1.0000000000000000e-02 1.8114771522500000e+01 -1.7701954111899997e+01 -1.8548918815299999e+01 0 1 1
241 4 1 8.9999999999999997e-02 1.7646177955100001e+01 -1.8727597281999998e+01 -1.8808767872599997e+01 0 1 1
242 4 1 8.9999999999999997e-02 1.7691652454800000e+01 -1.6909173595900000e+01 -1.9275202020799998e+01 0 1 1
243 4 4 -1.0000000000000000e-02 1.7671807643699999e+01 -1.7302610247099999e+01 -1.6987617805699998e+01 0 1 1
244 4 1 8.9999999999999997e-02 1.6526374396200001e+01 -1.7150740093299998e+01 -1.6951831809100000e+01 0 1 1
245 4 1 8.9999999999999997e-02 1.8185738665700001e+01 -1.6310887850200000e+01 -1.6695165503700000e+01 0 1 1
246 5 6 -3.4000000000000002e-01 1.8045743539899998e+01 -1.8388092210800000e+01 -1.6004484524200002e+01 0 1 1
247 5 4 -1.0000000000000000e-02 1.8690824350400000e+01 -1.8042655622599998e+01 -1.4681937715600000e+01 0 1 1
248 5 1 8.9999999999999997e-02 1.7973552973699999e+01 -1.7379004961200000e+01 -1.4065670990199997e+01 0 1 1
249 5 1 8.9999999999999997e-02 1.8872793509600001e+01 -1.9027665423999998e+01 -1.4102352336300001e+01 0 1 1
250 5 4 -1.0000000000000000e-02 2.0153143618000001e+01 -1.7250926246699997e+01 -1.4853693921000001e+01 0 1 1
251 5 1 8.9999999999999997e-02 2.0702339405499998e+01 -1.7249190252900000e+01 -1.3838195286999998e+01 0 1 1
252 5 1 8.9999999999999997e-02 1.9941795777100001e+01 -1.6155039222199999e+01 -1.5160323756200000e+01 0 1 1
253 6 6 -3.4000000000000002e-01 2.1038768215299999e+01 -1.7869414425199999e+01 -1.5910457986799997e+01 0 1 1
254 6 4 -1.0000000000000000e-02 2.1624983849100001e+01 -1.9248193793799999e+01 -1.5717863447199996e+01 0 1 1
255 6 1 8.9999999999999997e-02 2.0956454913799998e+01 -1.9859850707800000e+01 -1.5002912478399999e+01 0 1 1
256 6 1 8.9999999999999997e-02 2.2674379815300000e+01 -1.9139073668199998e+01 -1.5244327310300001e+01 0 1 1
257 6 4 -1.0000000000000000e-02 2.1767570770900001e+01 -2.0075072944100000e+01 -1.7162895111699999e+01 0 1 1
258 6 1 8.9999999999999997e-02 2.2394896000599999e+01 -2.1030363273799999e+01 -1.6988766931599997e+01 0 1 1
259 6 1 8.9999999999999997e-02 2.2325428260999999e+01 -1.9400724707999998e+01 -1.7919250661499998e+01 0 1 1
260 7 6 -3.4000000000000002e-01 2.0432658685900002e+01 -2.0460161641099997e+01 -1.7761172218199999e+01 0 1 1
261 7 4 -1.0000000000000000e-02 1.9875494748300000e+01 -2.1850779905299998e+01 -1.7558922471399999e+01 0 1 1
262 7 1 8.9999999999999997e-02 1.8921774526200000e+01 -2.1958626290300000e+01 -1.8206214780099998e+01 0 1 1
263 7 1 8.9999999999999997e-02 2.0656493066199999e+01 -2.2620123781800000e+01 -1.7927148602499997e+01 0 1 1
264 7 4 -1.0000000000000000e-02 1.9477434390399999e+01 -2.2199846766800000e+01 -1.5975424611400001e+01 0 1 1
265 7 1 8.9999999999999997e-02 1.8664279842500001e+01 -2.1454393505499997e+01 -1.5627216902199997e+01 0 1 1
266 7 1 8.9999999999999997e-02 2.0414150639399999e+01 -2.2061841981799997e+01 -1.5312555636399999e+01 0 1 1