ITEM: TIMESTEP
7857
ITEM: NUMBER OF ATOMS
7200
ITEM: BOX BOUNDS pp pp pp
-2.4007899999999999e+01 2.4007899999999999e+01
-2.4007899999999999e+01 2.4007899999999999e+01
-2.4007899999999999e+01 2.4007899999999999e+01
ITEM: ATOMS id type x y z vx vy vz ix iy iz 
3397 4 -16.3418 -21.1658 -19.9542 0.00525229 -0.00511624 -0.00292715 1 1 1 
3399 1 -17.187 -21.8842 -19.968 -0.0268513 -0.0107638 -0.00661595 1 1 1 
3401 4 -17.8748 -19.4861 -19.336 0.00200975 0.00174958 -0.00312364 1 1 1 
3402 1 -17.615 -19.7442 -18.2887 -0.0230634 -0.000307423 0.0449221 1 1 1 
3404 4 -19.2129 -20.1256 -19.7472 -0.00496691 -0.00523709 -0.0042578 1 1 1 
3405 1 -19.2039 -21.2169 -19.5554 0.017725 0.00124742 0.0073992 1 1 1 
3406 1 -19.3321 -19.9922 -20.844 -0.012609 -0.018325 0.00442781 1 1 1 
3407 6 -20.3406 -19.5053 -19.1388 0.000219541 0.00502924 0.003183 1 1 1 
3413 1 -20.6537 -22.0586 -18.2903 0.00931039 0.00584314 0.00442719 1 1 1 
3421 6 -23.0529 -23.0375 -20.4295 -0.00694831 0.00186576 0.00573676 1 1 1 
3428 6 -23.787 -21.1317 -22.5959 0.00389163 0.00190336 0.00099287 1 1 1 
3432 4 -22.7048 -19.4262 -21.2724 -0.00606443 0.000897461 0.00100467 1 1 1 
3433 1 -21.8368 -19.6077 -21.9425 -0.0128461 0.00968565 -0.0328268 1 1 1 
3434 1 -22.5525 -20.0643 -20.3736 0.0254462 -0.0290819 0.0206882 1 1 1 
3435 6 -22.6949 -18.0465 -20.921 -0.000313898 0.00605109 -0.00451827 1 1 1 
4275 4 -18.2093 -19.1922 -23.4362 -0.00646118 -0.00785165 -0.00337032 1 1 1 
4276 1 -17.7115 -19.4889 -22.4868 -0.0205199 -0.00405943 -0.00712294 1 1 1 
4277 1 -19.2718 -19.5044 -23.3734 -0.00529516 -0.00414903 -3.1241e-05 1 1 1 
4278 6 -18.1106 -17.7794 -23.5781 -0.00262031 0.00282852 6.87284e-05 1 1 1 
4279 4 -18.8437 -17.0839 -22.5749 0.00393302 -0.000373571 -0.0015428 1 1 1 
4280 1 -18.7225 -17.6117 -21.6037 -0.0111012 0.0174054 -0.00138838 1 1 1 
4282 4 -20.3493 -16.9383 -22.889 0.000481223 0.00158588 0.00467092 1 1 1 
4284 1 -20.7762 -17.9442 -23.0783 -0.0134495 0.015347 0.00803805 1 1 1 
3400 6 -16.8076 -19.8447 -20.2052 -0.00296333 0.00959406 -0.00374925 1 1 1 
3403 1 -17.9874 -18.3824 -19.3966 0.00481002 0.00854691 0.00873374 1 1 1 
3414 6 -22.5849 -21.3256 -18.0152 0.00182122 -0.00387537 0.0057124 1 1 1 
2854 1 -20.2507 -22.7484 -22.0251 -0.0126792 0.0256348 -0.0183625 1 1 1 
2857 1 -17.9176 -23.5721 -21.5033 0.0237537 0.00785114 -0.0125947 1 1 1 
3408 4 -20.5697 -19.9285 -17.7978 -0.00157463 0.00764285 0.00138154 1 1 1 
3409 1 -21.2557 -19.1904 -17.3244 0.0108112 -0.00516018 -0.00564403 1 1 1 
3410 1 -19.6138 -19.9003 -17.2354 -0.0152355 -0.0116963 -0.00508012 1 1 1 
3411 4 -21.2061 -21.3275 -17.6659 -0.00255825 -0.00232883 0.00284718 1 1 1 
3412 1 -21.1217 -21.6469 -16.6043 -0.0025929 -0.0117831 -0.00974404 1 1 1 
3415 4 -23.161 -22.626 -17.9361 0.00528898 -0.000746085 -0.00174276 1 1 1 
3416 1 -22.8513 -23.1145 -16.9864 0.00582252 0.0195461 -0.0126408 1 1 1 
4283 1 -20.873 -16.5293 -21.9985 -0.0147018 -0.00850325 -0.0178292 1 1 1 
3418 4 -22.8205 -23.5588 -19.1229 -0.00225334 0.00775221 -0.00484779 1 1 1 
3420 1 -21.7451 -23.835 -19.0702 -0.0174392 0.0167586 0.032878 1 1 1 
2853 4 -19.9755 -23.8196 -22.1544 0.0011598 0.00290593 0.00419386 1 1 1 
2859 6 -19.1268 -23.7847 -19.8334 -0.00056359 -0.0027745 0.0022902 1 1 1 
2863 4 -18.2807 -23.7787 -17.5047 -0.00254421 0.00860995 -0.00355444 1 1 1 
2865 1 -19.3438 -23.7786 -17.1827 0.00990237 -0.00600097 -0.0247425 1 1 1 
2866 6 -17.7352 -22.4668 -17.4174 0.00255782 0.00195436 0.00532225 1 1 1 
2868 1 -17.538 -20.8442 -16.1965 0.00883835 -0.00285029 0.00679514 1 1 1 
3438 1 -23.282 -18.5322 -18.9779 0.0102114 0.00577286 0.0173692 1 1 1 
3436 4 -23.5038 -17.7907 -19.7776 -6.76486e-05 0.00214843 -0.00303342 1 1 1 
3444 1 -20.8395 -17.1009 -19.673 -0.0105707 -0.0013624 0.00865218 1 1 1 
4281 1 -18.3873 -16.0796 -22.4574 -0.00439288 0.00452459 0.00369769 1 1 1 
223 1 -23.3596 -16.0917 -22.4836 -0.00958753 0.0321616 0.0106584 1 1 1 
3443 4 -20.9496 -16.1891 -19.0481 -0.00380248 0.0104869 0.00267549 1 1 1 
3446 4 -19.7399 -16.1191 -18.1004 0.00425298 0.000505349 0.00339612 1 1 1 
3447 1 -18.8196 -16.3201 -18.6902 0.0125189 0.00180546 -0.007796 1 1 1 
3448 1 -19.8521 -16.913 -17.3308 -0.0107766 -0.0342455 -0.00878201 1 1 1 
3442 6 -22.1761 -16.2678 -18.3318 -0.00373395 -0.0033153 -0.000446061 1 1 1 
3439 4 -23.3036 -16.378 -19.196 0.00532239 0.00304294 0.00581194 1 1 1 
3393 6 -15.9181 -21.8346 -22.266 0.0033803 -0.00105552 -0.00766265 1 1 1 
2852 6 -19.6424 -24.02 -23.5315 0.00011576 0.00187952 0.00601561 1 1 1 
3398 1 -15.8771 -21.1926 -18.9435 0.0156523 0.00251493 0.0194955 1 1 1 
3390 4 -15.0091 -22.4016 -23.2043 -0.00270425 0.000290137 0.00143795 1 1 1 
3392 1 -13.9602 -22.1171 -22.9729 -0.0116779 -0.0142991 -0.00629859 1 1 1 
3394 4 -15.3113 -21.624 -20.996 -0.00557196 -0.000763278 0.00885767 1 1 1 
3396 1 -14.5094 -20.8587 -21.0826 -0.0101176 -0.014743 -0.00563869 1 1 1 
6740 6 -10.0578 -19.3601 -17.2244 0.00376686 0.00276956 0.00832133 1 1 1 
3028 1 -11.8651 -22.6056 -21.5904 0.0103332 0.0045437 -0.00107608 1 1 1 
3031 1 -10.0158 -21.852 -20.3514 -0.00133733 0.00547032 -0.0199983 1 1 1 
6738 1 -8.87657 -20.4919 -18.5002 0.00196106 0.00968198 -0.00463917 1 1 1 
6737 4 -8.76907 -19.723 -17.7042 0.00135587 -0.00353678 -0.00168326 1 1 1 
3907 1 -8.66938 -21.5726 -22.6005 0.00175769 -0.00256605 0.0265351 1 1 1 
3027 4 -11.7415 -23.1099 -20.6058 0.00206914 -0.000614538 -0.000630917 1 1 1 
3029 1 -12.4397 -22.6378 -19.8785 0.025053 -0.0212529 0.0201881 1 1 1 
3030 4 -10.2877 -22.9072 -20.1285 0.00697484 0.0062663 0.00149442 1 1 1 
3032 1 -9.59215 -23.5598 -20.7003 -0.0172831 0.0186695 -0.00402929 1 1 1 
6741 4 -10.9383 -20.4745 -17.1624 0.00420426 0.000402323 -0.00428345 1 1 1 
6742 1 -11.2235 -20.7627 -18.1976 -0.00536328 -0.0134769 0.000931527 1 1 1 
3395 1 -14.8615 -22.58 -20.6484 -0.0104945 -0.0110547 -0.0168364 1 1 1 
3033 6 -10.1118 -23.0725 -18.7237 0.00304017 -0.00401249 0.00253908 1 1 1 
6743 1 -10.4306 -21.3372 -16.684 -0.00832598 0.00296038 0.00284123 1 1 1 
6744 4 -12.2084 -20.1229 -16.3763 -0.00117087 -0.00127148 0.0126821 1 1 1 
6745 1 -12.6269 -19.1871 -16.8106 0.00373166 0.00427104 0.0139207 1 1 1 
6747 6 -13.2191 -21.1238 -16.4765 -0.00268549 0.00136607 0.00312425 1 1 1 
6739 1 -8.30449 -18.8206 -18.1582 0.0111 -0.0332491 0.0178576 1 1 1 
6749 1 -13.6833 -23.0537 -16.0426 -0.0088574 -0.000344606 -0.00923871 1 1 1 
3387 4 -15.1408 -23.9299 -23.3467 0.00434896 -0.00227904 0.0032776 1 1 1 
6735 1 -8.34859 -21.059 -16.0264 -0.0505024 0.00319997 -0.017601 1 1 1 
3039 1 -7.83672 -23.7011 -17.6297 -0.00209421 0.00954976 -0.00722498 1 1 1 
3900 1 -7.0663 -17.9201 -20.4836 0.0257869 -0.0103252 -0.0226785 1 1 1 
6710 1 -6.79136 -16.2847 -16.7664 -0.020734 -0.0147415 0.0139127 1 1 1 
3046 1 -5.67153 -22.8594 -20.2333 0.021527 -0.030907 0.0103603 1 1 1 
3904 6 -7.47163 -20.1566 -21.7386 -0.00712647 0.000641271 0.00367648 1 1 1 
3905 4 -7.65969 -21.5094 -22.1354 -0.00137126 0.000682553 0.000447813 1 1 1 
3906 1 -7.65165 -22.1861 -21.255 0.0065821 -0.00114217 0.0100415 1 1 1 
3894 4 -5.72661 -17.605 -22.6081 0.00661931 -0.00436015 0.00217403 1 1 1 
3896 1 -6.66625 -18.1482 -22.8419 0.0010117 -0.0102158 0.00551323 1 1 1 
3898 4 -6.14194 -18.5378 -20.4646 -0.00186238 -0.00281296 -0.00516293 1 1 1 
3899 1 -5.70653 -18.4619 -19.4448 0.00463067 0.0266659 -0.0123937 1 1 1 
3901 4 -6.46641 -20.0169 -20.7422 -0.00118498 0.00167489 0.000624296 1 1 1 
900 1 -1.73384 -20.4027 -21.01 0.0106488 0.0264332 -0.0292627 0 1 1 
2953 7 -2.30913 -18.8044 -16.9564 0.000829945 0.00251335 0.00423155 1 1 1 
2954 3 -2.13491 -19.5294 -17.58 0.0118757 0.0125038 -0.00678566 1 1 1 
2955 4 -3.70756 -18.7828 -16.6789 -0.00169168 0.00132141 0.0040131 1 1 1 
2956 1 -4.21656 -18.2268 -17.4981 -0.00843527 0.00274998 -0.0122365 1 1 1 
2957 1 -4.11425 -19.816 -16.6533 -0.00104515 -0.0139362 0.0326361 1 1 1 
3050 1 -3.55892 -21.7905 -20.1195 0.00380308 0.00308783 -0.00689676 1 1 1 
3051 4 -2.01015 -22.2991 -18.6773 0.00660924 -0.000451148 0.00603509 1 1 1 
3052 1 -1.43229 -22.7754 -19.5003 0.00473319 0.0144901 0.0096753 1 1 1 
3054 6 -1.48641 -21.0135 -18.3613 -0.00414621 0.00182998 0.00289274 1 1 1 
3055 4 -0.210108 -21.0915 -17.7288 -0.00178337 0.00349065 -0.00158289 1 1 1 
3895 1 -4.98513 -17.8779 -23.3912 0.0121134 -0.000517771 0.00560733 1 1 1 
3897 6 -5.16715 -18.02 -21.363 -0.0066881 -0.000267059 0.000310855 1 1 1 
3903 1 -5.53224 -20.5364 -21.0483 -0.0113655 0.00143797 0.0010559 1 1 1 
3902 1 -6.84177 -20.4882 -19.8087 -0.00876663 -0.00144969 -0.0214755 1 1 1 
3048 4 -3.48373 -22.1866 -19.0834 0.000450641 -0.00293235 0.00256633 1 1 1 
3049 1 -3.99876 -21.4855 -18.3911 0.0215858 -0.0275861 -0.00143588 1 1 1 
3057 1 -0.245331 -21.8038 -16.8802 -0.0105755 0.0133519 -0.0233995 1 1 1 
895 4 -1.3367 -18.3286 -20.5841 0.000652994 -0.0025202 -0.00389559 0 1 1 
896 1 -1.83587 -18.3647 -19.5919 0.00309535 -0.0119413 0.000261366 0 1 1 
897 1 -1.50362 -17.3233 -21.024 0.0124139 0.00121621 0.00266375 0 1 1 
898 4 -1.94373 -19.4196 -21.4851 0.00782452 0.00344667 -0.00131849 0 1 1 
899 1 -3.04512 -19.3012 -21.5542 0.0314302 -0.0164795 0.019231 0 1 1 
901 6 -1.38246 -19.4458 -22.7926 0.00055967 0.00598578 -0.00550575 0 1 1 
903 1 -2.20005 -17.5321 -23.084 0.0272548 -0.00496579 0.0286061 0 1 1 
3908 4 -6.63622 -21.9556 -23.1905 0.00539594 -0.00449844 0.00213007 1 1 1 
3909 1 -5.633 -22.1129 -22.7429 0.00442476 -0.00149545 0.0204304 1 1 1 
3044 4 -5.50832 -23.3573 -19.2537 -7.57637e-05 -0.00234657 0.00405183 1 1 1 
3045 1 -5.97971 -22.7485 -18.4524 -0.0104389 -0.00890665 -0.0145352 1 1 1 
3047 6 -4.11678 -23.4533 -18.9974 0.0031443 0.00485489 0.00483798 1 1 1 
3053 1 -1.94033 -22.9544 -17.7814 0.0218949 0.00285455 -0.00662793 1 1 1 
3910 1 -6.54008 -21.1334 -23.935 -0.00251747 -0.00854256 0.00963706 1 1 1 
3911 6 -7.07549 -23.1044 -23.9078 0.000469871 0.00178758 -0.00562229 1 1 1 
3931 1 -1.81591 -22.4992 -22.0864 0.0164988 0.00795132 -0.0100423 1 1 1 
6734 4 -7.84653 -20.243 -16.5882 -0.00163349 0.00185748 0.00348501 1 1 1 
6736 1 -6.92963 -20.6743 -17.0448 -0.0110648 0.00295995 -0.0188951 1 1 1 
902 4 -1.92538 -18.448 -23.6484 -0.00872685 0.000725738 -0.000252807 0 1 1 
3929 4 -1.49986 -23.2637 -22.8271 0.00112578 -0.00594679 -0.0022315 1 1 1 
3930 1 -0.451116 -23.0447 -23.1239 -0.00344424 0.00522606 -0.000207675 1 1 1 
3056 1 -0.00763126 -20.0877 -17.2907 0.0314051 0.00638661 0.0127058 1 1 1 
894 6 0.058032 -18.5416 -20.4139 0.00422127 0.00190551 0.00644899 0 1 1 
6707 1 -7.60394 -16.0991 -19.0043 0.00700246 -0.0162994 -0.00179586 1 1 1 
3891 4 -5.945 -16.0825 -22.7023 -0.00580147 -0.00556009 0.00430489 1 1 1 
2052 1 -3.46731 -22.361 -16.1763 -0.0063513 0.0104377 -0.0127915 1 1 1 
892 1 0.232277 -16.6475 -19.5871 -0.000307226 0.0215028 0.0184274 0 1 1 
893 1 0.335129 -18.0231 -18.4198 0.0107853 0.00345185 -0.00860733 0 1 1 
891 4 0.622259 -17.6784 -19.4361 -0.00916381 0.00149297 -0.00287291 0 1 1 
3060 1 0.881053 -20.6918 -19.5442 -0.00715023 -0.0132413 -0.00397904 1 1 1 
3061 6 1.02319 -22.7143 -19.1976 0.00292565 -0.00348149 0.00429584 1 1 1 
3058 4 0.964527 -21.3892 -18.6836 0.00265739 0.00308582 -0.00340629 1 1 1 
1084 1 0.57531 -20.6844 -21.9613 0.0163164 0.00142672 0.00286376 0 1 1 
1082 3 1.51764 -22.4975 -21.0251 -0.0170221 0.0234442 -0.016701 0 1 1 
888 4 2.15185 -17.656 -19.5873 -0.00384797 -0.00667921 0.00408709 0 1 1 
887 6 2.73795 -18.9192 -19.2849 0.00191686 0.00201514 -0.000975257 0 1 1 
889 1 2.37478 -17.3687 -20.6404 0.00566107 0.00933457 0.0168681 0 1 1 
890 1 2.58647 -16.8891 -18.9106 -0.00384814 0.0210552 -0.00358379 0 1 1 
866 3 7.43879 -20.7062 -20.3809 -0.0201723 0.0237471 -0.0101578 0 1 1 
870 4 7.77468 -18.8954 -21.8119 -0.0122494 -0.00143371 0.00177128 0 1 1 
872 1 6.92349 -18.6625 -21.1401 -0.00789466 -0.0206639 0.00422441 0 1 1 
873 6 7.31299 -19.4864 -23.0288 -0.00328309 -0.00268191 -0.00210973 0 1 1 
874 4 6.66366 -20.7473 -22.8731 0.00498456 -0.00198246 -0.00207281 0 1 1 
875 1 6.3444 -21.0532 -23.8954 -0.0217924 -0.0208116 -0.00451618 0 1 1 
876 1 7.39102 -21.5083 -22.5292 -0.00686146 0.0163674 -0.011624 0 1 1 
877 4 5.40278 -20.7555 -21.9828 0.00399554 -0.000449422 0.000809746 0 1 1 
878 1 4.84988 -21.7068 -22.1587 -0.00433332 0.0079452 0.0153547 0 1 1 
879 1 4.74719 -19.9224 -22.3157 -0.018841 -0.00863251 -0.0140496 0 1 1 
880 6 5.70488 -20.6681 -20.5876 -0.00175751 -0.00115121 -0.000146572 0 1 1 
881 4 4.53903 -20.4779 -19.7935 0.000972441 0.00274404 -0.0048242 0 1 1 
882 1 3.73035 -21.1384 -20.1743 0.0170084 0.0198238 -0.0195296 0 1 1 
883 1 4.75871 -20.7938 -18.7503 0.0054274 0.00572197 0.00904075 0 1 1 
884 4 4.07022 -19.0128 -19.7733 -0.00574023 0.00443162 0.00273244 0 1 1 
885 1 4.10163 -18.6066 -20.8064 0.008307 0.000700432 -0.0111864 0 1 1 
886 1 4.75274 -18.4016 -19.1441 0.0126173 -0.026947 0.00718073 0 1 1 
1081 7 1.76943 -22.3761 -21.9548 -0.000781663 0.000620337 0.00325713 0 1 1 
1085 1 2.31582 -20.3717 -21.6705 0.0156275 -0.0104519 0.0261608 0 1 1 
3059 1 1.92313 -21.1603 -18.1682 0.00476945 -0.00351709 0.00268754 1 1 1 
1083 4 1.6028 -20.9887 -22.2563 -0.0027407 0.00450835 -0.00579908 0 1 1 
4212 1 3.96135 -23.8118 -19.6677 0.00878686 0.00193246 0.00894399 0 1 1 
4205 1 5.65813 -23.6998 -17.0685 -0.00399618 0.00735757 -0.0123814 0 1 1 
4211 1 5.62787 -23.2508 -19.3223 -0.000516889 -0.00734648 0.0220508 0 1 1 
4216 1 7.08802 -23.209 -21.0683 -0.00274139 -0.014549 0.0224066 0 1 1 
4219 1 6.25844 -23.7226 -23.4781 -0.0169542 0.00318967 0.00296336 0 1 1 
1086 4 1.79142 -20.6821 -23.757 -0.00403393 0.00129648 -0.00512239 0 1 1 
1087 1 1.51055 -19.6163 -23.8977 -0.0152846 0.0236762 -0.0039613 0 1 1 
3063 1 0.845365 -23.5853 -17.3002 0.0203134 -0.0148888 -0.00156219 1 1 1 
3062 4 1.45894 -23.6518 -18.2204 -0.00441909 -0.0090626 0.00112896 1 1 1 
3064 1 2.51103 -23.4198 -17.9433 -0.000900245 0.0175696 0.00958971 1 1 1 
468 1 5.97494 -17.3493 -23.958 -0.00982993 0.00098772 -0.0143663 0 1 1 
871 1 8.2048 -17.9116 -22.1055 -0.0123278 0.0115739 0.00200163 0 1 1 
865 7 8.40898 -20.773 -20.3383 0.00213191 -0.00591671 -0.00127867 0 1 1 
867 4 8.89451 -19.6323 -21.0436 0.00236622 0.0010594 -0.00117411 0 1 1 
868 1 9.31941 -18.9307 -20.2925 0.0111975 0.0182428 -0.00649751 0 1 1 
869 1 9.70846 -19.9254 -21.7413 -0.0252876 0.0086608 0.00678908 0 1 1 
443 1 13.8776 -20.9 -22.1691 0.0209076 -0.00968661 0.0223051 0 1 1 
3114 1 11.9527 -17.2803 -16.1066 0.00330692 0.00474463 -0.0148382 0 1 1 
3120 4 11.284 -17.2884 -18.8109 0.00204272 0.00746675 -0.00347791 0 1 1 
3121 1 11.089 -17.6945 -19.8273 -0.00318273 -0.0262577 -0.000647142 0 1 1 
3122 1 11.9432 -18.0159 -18.294 0.0119459 0.012855 0.0109455 0 1 1 
6769 7 14.4987 -18.4397 -19.2854 0.00182231 -0.00139711 0.00880114 0 1 1 
6770 3 13.8974 -19.1943 -19.1522 -0.0227719 0.0346062 -0.00613627 0 1 1 
6771 4 15.7557 -18.8767 -18.7695 0.00895408 -0.00837473 0.000207313 0 1 1 
6774 4 15.6661 -20.3074 -18.1929 0.0123693 0.00549102 0.000157022 0 1 1 
6776 1 15.1211 -20.9833 -18.8854 -0.0126659 0.00118939 0.00618656 0 1 1 
6777 6 15.1649 -20.4238 -16.8586 0.00506362 0.00646595 -0.00352839 0 1 1 
6778 4 13.813 -20.0024 -16.6904 -0.00221688 -0.00210368 -0.00664576 0 1 1 
6780 1 13.7113 -18.9193 -16.9086 0.00537305 0.0252148 0.0031554 0 1 1 
6781 4 12.768 -20.8238 -17.4712 -0.00220007 0.00782222 -0.000357347 0 1 1 
6782 1 11.7661 -20.628 -17.0276 -0.0195634 0.0143093 0.0115847 0 1 1 
6783 1 12.996 -21.9052 -17.3468 -0.0111832 -0.0219568 -0.000615191 0 1 1 
6784 6 12.7143 -20.4718 -18.852 -0.000744706 -0.000682857 0.00443589 0 1 1 
6785 4 11.7867 -21.2824 -19.5699 0.000201143 -0.00352292 0.00136023 0 1 1 
6786 1 10.8644 -21.4126 -18.9606 -0.0112901 -0.0339438 -0.0172859 0 1 1 
6787 1 11.4861 -20.7503 -20.4972 0.0208658 -0.0178503 0.00259425 0 1 1 
6788 4 12.3493 -22.661 -19.9648 -0.00184559 0.00194471 0.00751279 0 1 1 
6789 1 13.2155 -22.8994 -19.3139 -0.00522016 0.0207997 -0.00784014 0 1 1 
6790 1 12.7237 -22.6496 -21.0119 0.0104397 0.000974106 -0.0101592 0 1 1 
6792 4 10.4586 -23.777 -20.8437 0.00155639 0.00419856 -0.00410257 0 1 1 
6793 1 10.2158 -22.7736 -21.2579 -0.00281665 -0.00346845 0.00780024 0 1 1 
6791 6 11.3944 -23.6978 -19.7718 -0.00222365 0.00172698 0.00725858 0 1 1 
437 1 9.47811 -21.3401 -23.5082 0.00685228 0.0223545 0.0176931 0 1 1 
441 6 12.0199 -20.8872 -23.0154 -0.00123503 0.00373121 0.000444442 0 1 1 
442 4 13.3025 -20.2809 -22.8935 -0.000213889 -0.00536508 0.00385783 0 1 1 
445 4 13.2536 -18.8412 -22.3506 0.00323301 0.000761109 0.00228901 0 1 1 
446 1 14.2782 -18.5608 -22.0183 -0.0224748 -0.00388063 -0.0103449 0 1 1 
447 1 12.5796 -18.8068 -21.4671 -0.00765321 -0.0101634 0.00847029 0 1 1 
6811 1 15.8211 -21.9753 -23.8341 -0.0199075 -0.00815431 -0.00387997 0 1 1 
444 1 13.8509 -20.3183 -23.8593 -0.0237444 -0.0117711 0.0174491 0 1 1 
5651 1 15.6235 -17.1538 -23.856 -0.00471317 0.0189659 -0.00322313 0 1 1 
3118 1 9.00219 -16.4693 -16.5365 -0.00280414 -0.0111477 0.0140678 0 1 1 
3116 4 10.0527 -16.5239 -16.8998 -0.0028273 -0.00361096 -0.00560878 0 1 1 
3119 6 10.0251 -17.2337 -18.1351 -0.0029553 0.00442251 -0.00509815 0 1 1 
450 1 12.1321 -16.5117 -21.9271 0.00168001 -0.00490771 -0.0010743 0 1 1 
448 6 12.8223 -17.8998 -23.3257 -0.00227468 -0.00118755 0.00265718 0 1 1 
457 1 10.2877 -17.3003 -23.5525 -0.0213407 0.00575325 0.00234239 0 1 1 
449 4 12.8136 -16.5761 -22.8044 -0.000568277 -0.000783609 -0.00216673 0 1 1 
451 1 13.843 -16.3235 -22.4688 0.00862681 0.0137611 0.0180221 0 1 1 
277 1 15.1713 -23.9773 -20.0911 -0.0063044 -0.0224001 -5.65813e-05 0 1 1 
3124 1 12.9088 -16.1295 -19.6691 -0.0129216 0.00103675 0.0300546 0 1 1 
3429 4 24.0382 -19.8474 -22.0157 0.00464223 -0.000306074 -0.0055652 0 1 1 
3430 1 23.8462 -19.1308 -22.842 0.0166707 -0.00882814 0.029732 0 1 1 
3440 1 23.8188 -16.145 -18.574 -0.0160434 -0.021717 0.0239978 0 1 1 
6773 1 16.1198 -18.177 -17.9853 0.00881124 -0.0241991 0.0170105 0 1 1 
273 1 16.766 -22.8018 -21.1235 0.0109907 0.00772899 0.00887605 0 1 1 
6772 1 16.4927 -18.8664 -19.6042 0.0060707 -0.0074755 0.0235891 0 1 1 
3425 4 23.3709 -22.1286 -22.0547 0.00417452 -0.00705791 0.00806073 0 1 1 
3427 1 23.4947 -23.0383 -22.6784 -0.00972155 0.00994015 0.0259688 0 1 1 
6775 1 16.7067 -20.6983 -18.1497 0.0282864 -0.032802 -0.0138092 0 1 1 
3422 4 23.6576 -22.4988 -20.5881 -0.00212746 0.00442357 0.00739676 0 1 1 
3423 1 23.5521 -21.5892 -19.9591 -0.00304317 -0.0217359 -0.00672802 0 1 1 
3424 1 22.9123 -23.2539 -20.2554 -0.0257887 -0.00405427 0.00407098 0 1 1 
3426 1 22.3179 -21.7926 -22.1648 0.0250247 -0.00500788 -0.00592332 0 1 1 
3431 1 23.1593 -19.8187 -21.3386 0.0177239 0.0148212 0.019038 0 1 1 
235 1 19.1725 -17.7234 -21.8871 0.012486 0.0060233 0.014099 0 1 1 
238 1 20.1594 -16.8192 -19.7943 -0.0116851 -0.00664789 0.000263587 0 1 1 
239 6 18.0995 -16.525 -19.7878 0.00436277 0.00310152 0.000856053 0 1 1 
259 1 23.0218 -19.4281 -17.7698 -0.0135704 0.00977108 0.0011382 0 1 1 
260 6 21.5184 -19.2459 -19.1684 -0.00431251 -0.00145493 0.00663862 0 1 1 
261 4 20.6852 -20.1345 -19.907 -0.0054523 0.00644896 -0.00177698 0 1 1 
262 1 20.6052 -19.715 -20.9355 0.00473678 0.00702803 -0.0119725 0 1 1 
263 1 21.1725 -21.1268 -19.9905 -0.0114279 0.00936694 0.0204888 0 1 1 
5625 6 18.7176 -22.334 -23.7736 0.00219508 0.00425694 0.00156854 0 1 1 
5626 4 19.2038 -21.0067 -23.5995 0.00924893 -0.0109509 0.00196707 0 1 1 
5627 1 18.577 -20.5592 -22.7944 0.00916884 0.00936014 0.00106131 0 1 1 
5628 1 20.2476 -21.0155 -23.2204 -0.018612 -0.0112678 -0.0158503 0 1 1 
3437 1 23.4458 -17.8955 -20.0746 -0.00458693 0.0174227 0.0174447 0 1 1 
224 1 23.022 -16.7854 -22.6442 -0.030196 -0.00528574 -0.0164493 0 1 1 
233 4 19.3812 -16.6318 -21.8231 0.00263722 -0.00179749 -0.0071022 0 1 1 
5621 1 21.0127 -23.6722 -23.4275 -0.0114683 0.000711754 0.00585251 0 1 1 
264 4 19.2584 -20.2635 -19.3532 -0.00258202 -0.00396067 0.0110161 0 1 1 
265 1 18.8488 -19.2367 -19.2095 0.0184311 -0.00497719 0.0128762 0 1 1 
267 6 18.3783 -20.9736 -20.2176 0.00467704 -0.0045204 0.00071157 0 1 1 
269 1 19.3608 -22.4376 -21.2914 -0.0032087 0.0184842 0.00138361 0 1 1 
268 4 18.7529 -22.3405 -20.3676 -0.00621181 -0.00196008 -0.00220136 0 1 1 
3417 1 23.7531 -22.5033 -17.8811 0.0379778 0.00028772 0.00648482 0 1 1 
257 4 21.9731 -19.7698 -17.9191 -0.00250802 0.00293 -0.00140622 0 1 1 
258 1 21.9914 -20.8783 -17.947 0.0154086 -0.00251094 -0.0149432 0 1 1 
246 6 18.3882 -17.3859 -16.8799 0.00212674 0.0015972 -0.00057801 0 1 1 
266 1 19.2598 -20.7647 -18.3648 0.0155911 0.0116115 0.0315533 0 1 1 
270 1 19.3763 -22.6779 -19.5171 0.00413824 -0.0117011 0.00170727 0 1 1 
232 6 20.6032 -16.3815 -22.5114 -0.00248303 -0.00374618 0.00443004 0 1 1 
236 4 19.3804 -16.2393 -20.3384 0.00744352 -0.00361114 0.00476251 0 1 1 
271 4 17.5355 -23.2697 -20.4692 0.00320896 0.000365332 -0.00422903 0 1 1 
274 6 17.0007 -23.5444 -19.1768 0.00184972 -0.000830874 -0.00019088 0 1 1 
253 6 21.2616 -17.8826 -16.5483 -0.011234 -0.003259 -0.00198372 0 1 1 
254 4 21.1554 -19.2904 -16.7038 -0.00297527 0.00186852 0.00196818 0 1 1 
255 1 20.0944 -19.5765 -16.8343 0.0101715 -0.00550657 -0.0110599 0 1 1 
2815 1 21.4388 -23.0793 -18.1303 -0.00684583 -0.0114839 -0.00866697 0 1 1 
2812 1 19.3668 -22.9042 -17.1588 0.0036248 -0.00566369 0.0139907 0 1 1 
234 1 18.5512 -16.1027 -22.3394 0.0123781 0.00279646 -0.00928995 0 1 1 
2811 4 19.7823 -23.9299 -17.0492 -0.00514186 0.000727612 0.000341196 0 1 1 
5652 1 17.376 -17.4594 -23.9438 -0.0128373 0.00437074 -0.00766075 0 1 1 
222 4 23.7688 -16.14 -23.1526 -0.0016606 0.00735203 0.00252659 0 1 1 
243 4 18.6803 -16.0899 -17.3862 0.00338461 -0.00226936 -0.000921875 0 1 1 
4286 4 -20.5445 -14.7361 -23.7387 0.00370776 0.00257686 -0.00378222 1 1 1 
4287 1 -19.5124 -14.4961 -23.4165 -0.0251678 0.0192938 -0.0012553 1 1 1 
4288 1 -21.24 -14.4864 -22.9065 0.0218626 -0.00671193 -0.0160716 1 1 1 
3445 1 -20.9546 -15.2982 -19.712 -0.0243444 -0.0107894 0.0184087 1 1 1 
3449 6 -19.6158 -14.838 -17.4914 -0.00256506 0.00126062 -0.00118836 1 1 1 
3450 4 -18.4346 -14.715 -16.7095 -0.00876602 -0.00256106 -0.00149052 1 1 1 
3452 1 -18.3005 -13.6329 -16.4831 -0.0331389 -0.0112469 -0.0255718 1 1 1 
3441 1 -23.2542 -15.6228 -20.0093 0.0123504 -0.0188282 0.0273419 1 1 1 
3451 1 -17.5499 -15.0444 -17.2982 -0.0119632 -0.0240469 -0.00121747 1 1 1 
4312 1 -12.837 -10.52 -23.1398 -0.00194001 -0.00848232 0.00214074 1 1 1 
6851 1 -8.50278 -13.4455 -23.4296 0.00549355 -0.00826651 -0.00212294 1 1 1 
4318 2 -11.5689 -8.78724 -22.7364 -0.00485954 0.0114813 -0.007143 1 1 1 
4319 2 -9.81214 -8.43512 -22.8962 0.0219115 -0.00993096 0.000277473 1 1 1 
4311 1 -12.2022 -12.1267 -23.6595 0.0191466 0.0255787 0.00710683 1 1 1 
4315 1 -10.2035 -10.869 -23.3488 0.000514745 -0.0143248 -0.0286729 1 1 1 
4317 5 -10.7215 -8.74859 -23.4508 0.00552047 0.00398155 0.00703426 1 1 1 
6711 1 -8.01759 -14.9558 -16.8055 -0.0130387 -0.0121835 0.00711717 1 1 1 
3890 3 -7.88016 -15.7903 -22.6027 -0.00458897 -0.0242794 -0.0108257 1 1 1 
6701 1 -7.6446 -11.9128 -20.7274 0.00566261 -0.0108063 -0.0145158 1 1 1 
6705 6 -7.42252 -14.0932 -19.2901 0.00464186 0.00121663 0.00227601 1 1 1 
3889 7 -7.12121 -15.6611 -22.0122 -0.00508247 -0.00318251 0.00343295 1 1 1 
6708 1 -5.91472 -15.5142 -19.0154 0.0272575 -0.00558488 -0.0136098 1 1 1 
3893 1 -5.05521 -15.5673 -22.2743 0.00594025 -0.0242149 0.0133896 1 1 1 
6709 4 -6.99312 -15.2497 -17.1214 -0.00310585 -0.000869457 -0.00107749 1 1 1 
6706 4 -6.94035 -15.2749 -18.6604 -0.00201004 0.00391989 -0.00307151 1 1 1 
6712 6 -6.03509 -14.3667 -16.5467 -0.00111132 -0.000631245 -0.00364985 1 1 1 
6698 3 -6.51895 -13.8268 -21.5742 -0.0166454 -0.00761346 0.00151227 1 1 1 
6704 1 -5.43398 -13.4126 -19.1608 0.00966124 0.0076124 0.0160705 1 1 1 
6697 7 -6.09056 -12.9525 -21.6598 -0.00983309 0.00465549 0.00468936 1 1 1 
6699 4 -6.5831 -12.1987 -20.5524 -0.00228257 0.000577349 -0.000612362 1 1 1 
6700 1 -5.9842 -11.266 -20.4539 -0.0317316 -0.04027 0.00804591 1 1 1 
6702 4 -6.4738 -13.0305 -19.2657 -0.00712834 0.00267258 0.00630956 1 1 1 
6703 1 -6.69445 -12.3931 -18.3826 0.00864321 -0.0225656 0.0298467 1 1 1 
3000 4 -5.66904 -9.24438 -17.1396 0.00651207 -0.012702 0.00716865 1 1 1 
3001 1 -6.26808 -10.1723 -17.275 0.0211204 0.000949891 0.00335227 1 1 1 
3002 1 -4.81117 -9.50361 -16.4826 0.0205355 -0.00805548 -0.000225427 1 1 1 
3003 6 -5.19514 -8.82157 -18.4145 0.00452359 -0.0010622 0.0044657 1 1 1 
3006 1 -3.18168 -8.61793 -17.9046 0.0293002 0.0348927 -0.025561 1 1 1 
3193 1 -5.6932 -10.7608 -23.3266 -0.0405178 0.00708364 -0.00372317 1 1 1 
3194 1 -7.46468 -11.06 -23.4406 -0.00166723 -0.00590589 -0.0249431 1 1 1 
3195 4 -6.87079 -8.97537 -23.6104 -0.000942431 0.00313412 -0.00162716 1 1 1 
3198 6 -7.15329 -8.70005 -22.2411 -0.00209363 0.00182775 -0.00059265 1 1 1 
3011 4 -3.61498 -9.28813 -21.0522 -0.00111348 0.00097806 -0.00109123 1 1 1 
3012 1 -3.82459 -10.032 -20.2532 0.00542141 -0.0165312 0.015126 1 1 1 
3013 1 -4.58324 -8.91349 -21.4459 -0.011173 -0.033486 0.00434725 1 1 1 
3014 4 -2.83404 -9.96963 -22.1872 -0.00316446 -0.000340094 0.00209217 1 1 1 
3015 1 -3.32232 -10.938 -22.4315 0.0233931 -0.0228127 -0.0194546 1 1 1 
3016 1 -1.802 -10.1752 -21.8291 -0.000485105 0.0249253 0.0378086 1 1 1 
3017 6 -2.82478 -9.16172 -23.3624 0.00337245 0.00361252 -0.00197652 1 1 1 
3179 1 -2.35258 -15.2214 -23.5198 0.0267991 -0.0218529 -0.0345152 1 1 1 
3892 1 -6.02972 -15.7861 -23.771 -0.0213481 -0.0167497 -0.013742 1 1 1 
3021 5 -0.453973 -8.93678 -23.9055 0.00192262 -0.0111876 -0.00038871 1 1 1 
3192 4 -6.62415 -10.4665 -23.8605 -0.00340905 0.00419458 -0.000222677 1 1 1 
3182 1 -2.73202 -12.9273 -23.8614 -0.00227502 -0.0120835 -0.0205445 1 1 1 
3183 1 -4.36622 -13.6772 -23.8706 -0.00462589 0.00629333 -0.00415501 1 1 1 
3197 1 -5.96319 -8.4233 -23.9385 -0.0228677 0.00512128 -0.0423324 1 1 1 
3022 2 -0.0912886 -9.34289 -22.9388 -0.0182019 0.0147491 -0.0112641 1 1 1 
3010 6 -2.84873 -8.22607 -20.4957 0.00739601 0.00192564 -0.00230963 1 1 1 
2998 1 -7.51485 -8.12164 -17.0348 -0.00314202 0.00527789 0.0116129 1 1 1 
2997 4 -6.56439 -8.19287 -16.4614 -0.00625957 -0.00435437 0.00283897 1 1 1 
3004 4 -4.02626 -8.01423 -18.3025 -0.0131167 -0.00224509 0.00717397 1 1 1 
463 4 6.78103 -15.3371 -23.7588 -0.00473087 0.00552055 0.00448172 0 1 1 
464 1 6.35841 -15.0236 -22.7794 -0.00310279 0.00365289 -0.00431851 0 1 1 
5594 1 14.4096 -16.1069 -16.1582 -0.0146663 -0.017383 0.0118878 0 1 1 
462 6 8.07383 -15.8634 -23.483 0.00324869 -0.00265825 0.00781888 0 1 1 
3123 4 12.0413 -15.9567 -18.9946 -0.00261478 0.00561466 0.00102151 0 1 1 
3125 1 12.4299 -15.6207 -18.0094 -0.0107074 0.00851315 0.00727368 0 1 1 
3137 4 10.9015 -11.1309 -17.9736 0.00427973 0.0016885 -0.00610569 0 1 1 
3138 1 10.5404 -10.2681 -17.3694 -0.00285006 0.0167645 0.000174137 0 1 1 
3139 1 10.1203 -11.9238 -17.9607 0.022526 -0.0111347 0.0243262 0 1 1 
3140 6 11.1226 -10.6741 -19.3039 0.00068365 0.00106848 0.000373273 0 1 1 
3141 4 9.89071 -10.393 -19.9589 0.00531071 0.00580796 0.00254927 0 1 1 
3142 1 9.28286 -11.3207 -20.0265 0.0206568 0.0160498 -0.0162662 0 1 1 
3143 1 9.32965 -9.65353 -19.3453 0.0140317 0.0197681 0.0114408 0 1 1 
3117 1 10.3811 -15.4776 -17.07 0.011992 -0.00761198 0.00979283 0 1 1 
3126 6 11.1907 -14.9565 -19.5412 0.0029259 -0.00146056 0.00442056 0 1 1 
3127 4 11.8852 -13.7922 -19.9779 -0.00131345 -0.000113532 -0.00152944 0 1 1 
3128 1 12.3838 -14.0208 -20.9448 0.0275909 -0.0244389 0.00132873 0 1 1 
3129 1 11.1169 -13.0193 -20.1876 -0.0192203 -0.00346931 -0.0253762 0 1 1 
3130 4 12.9288 -13.2056 -19.0003 0.00489579 -0.00155627 -0.00289687 0 1 1 
3131 1 13.2919 -12.2362 -19.4056 -0.013956 0.00298606 0.000914945 0 1 1 
3132 1 13.8026 -13.8915 -18.9744 -0.0202915 -0.0197086 -0.00736879 0 1 1 
3133 6 12.4661 -13.0434 -17.6596 -0.00270594 -0.00586341 0.00487895 0 1 1 
3134 4 12.1755 -11.6904 -17.3172 -0.00623105 0.000316815 0.0048327 0 1 1 
3135 1 13.0457 -11.035 -17.5264 0.0197733 0.0220473 -0.0139473 0 1 1 
3136 1 12.0194 -11.6736 -16.2161 -0.0022012 0.0149498 0.0176327 0 1 1 
3144 4 10.0976 -9.79532 -21.363 0.000813153 -0.00615763 0.000698385 0 1 1 
3145 1 10.7938 -8.93379 -21.272 -0.00431341 0.0186034 0.00364947 0 1 1 
3146 1 9.13357 -9.39536 -21.7458 0.00718634 -6.336e-05 -0.00436843 0 1 1 
3878 4 13.7178 -9.9565 -21.7827 -0.00729637 0.00367594 -0.00277704 0 1 1 
3879 1 13.1805 -10.7014 -21.1555 0.00641439 0.000358988 -0.0100072 0 1 1 
4338 1 13.5992 -8.75285 -16.7507 -0.0191522 0.0217986 0.00685429 0 1 1 
5579 1 15.575 -12.3782 -20.1933 -0.007778 -0.00639902 0.00145973 0 1 1 
5583 1 15.2018 -12.0532 -17.8213 0.0121445 0.0154535 0.0152113 0 1 1 
5591 1 15.1849 -14.2319 -17.2386 0.00395517 0.00505656 0.0127098 0 1 1 
3881 6 14.8171 -9.43083 -21.0453 -0.00183776 -0.000742216 -0.0038473 0 1 1 
3882 4 14.4465 -8.98835 -19.7465 0.00746792 -0.00322602 -0.00280151 0 1 1 
3883 1 13.9262 -9.80936 -19.208 -0.02006 -0.00198483 0.00140175 0 1 1 
3884 1 15.3881 -8.7646 -19.195 0.0134131 0.00916879 0.0107158 0 1 1 
3149 1 9.51521 -12.4037 -22.0286 -0.00638279 0.0053923 -0.00344156 0 1 1 
4337 4 14.4764 -8.69504 -16.0706 -0.00865977 -0.000217047 0.00276668 0 1 1 
4339 1 15.2603 -9.36832 -16.4761 -0.00161272 0.0040729 0.0182625 0 1 1 
5589 4 15.3489 -14.1656 -16.1415 -0.00346521 -0.00933325 -0.00328411 0 1 1 
3880 1 13.0034 -9.14726 -22.0473 -0.010506 -0.0173594 0.00157831 0 1 1 
3147 6 10.6427 -10.696 -22.3233 -0.00222591 -0.000172343 0.004453 0 1 1 
3148 4 9.68332 -11.6312 -22.811 0.00941789 0.00455117 0.00232926 0 1 1 
3150 1 8.71582 -11.1274 -23.0282 -0.00424442 0.000676655 -0.007356 0 1 1 
3875 4 14.1559 -10.648 -23.0873 -0.00250461 0.00609149 -0.00291225 0 1 1 
3876 1 13.3118 -11.2915 -23.418 -0.0230636 0.00850668 0.00121005 0 1 1 
3877 1 15.0291 -11.3105 -22.9136 -0.0232536 -0.0048559 0.0141581 0 1 1 
452 4 12.3694 -15.5566 -23.8669 -0.00589387 -6.22811e-05 -0.0026626 0 1 1 
454 1 12.805 -14.566 -23.6081 -0.00461501 -0.0179631 0.0176543 0 1 1 
455 6 10.9614 -15.3644 -23.9289 0.00527546 0.00326582 -0.007365 0 1 1 
241 1 16.7541 -15.901 -18.3564 -0.000668797 0.00619078 0.00564186 0 1 1 
5582 4 16.2831 -11.8447 -17.6947 0.00409288 0.00348903 -0.00225374 0 1 1 