<?xml version="1.0" encoding="ISO-8859-1"?>
<modeling>
 <generator>
  <i name="program" type="string">vasp</i>
  <i name="version" type="string">4.6.35 </i>
  <i name="subversion" type="string">3Apr08 complex  parallel</i>
  <i name="platform" type="string">LinuxIFC</i>
  <i name="date" type="string">2015 01 29</i>
  <i name="time" type="string">21:00:28</i>
 </generator>
 <incar>
  <i type="string" name="SYSTEM">CoGe_hO.T0009.BAC:LDAU2</i>
  <i type="string" name="PREC">high</i>
  <i type="string" name="ALGO">Normal</i>
  <i type="int" name="ISPIN">     2</i>
  <i type="int" name="ICHARG">    11</i>
  <i type="int" name="NELM">   120</i>
  <i type="int" name="NELMIN">     2</i>
  <i type="int" name="IBRION">     2</i>
  <i type="int" name="NSW">     0</i>
  <i type="int" name="ISIF">     2</i>
  <i type="int" name="ISYM">     2</i>
  <i name="ENMAX">    574.59500000</i>
  <i type="int" name="NBANDS">    74</i>
  <v name="MAGMOM">      1.00000000      1.00000000      1.00000000      1.00000000      1.00000000</v>
  <i type="logical" name="LPLANE"> T  </i>
  <i type="int" name="ISMEAR">     0</i>
  <i name="SIGMA">      0.05000000</i>
  <i type="int" name="NSIM">     4</i>
  <i type="int" name="LMAXMIX">     4</i>
  <i type="logical" name="LWAVE"> F  </i>
  <i type="logical" name="LCHARG"> F  </i>
  <i type="logical" name="LSCALU"> F  </i>
  <i type="logical" name="LAECHG"> F  </i>
  <i type="logical" name="LDAU"> T  </i>
  <v type="int" name="LDAUTYPE">     2</v>
  <v type="int" name="LDAUL">     2     0     0</v>
  <v name="LDAUU">      5.00000000      0.00000000      0.00000000</v>
  <v name="LDAUJ">      0.00000000      0.00000000      0.00000000</v>
  <i type="int" name="LDAUPRINT">     0</i>
 </incar>
 <kpoints>
  <generation param="listgenerated">
   <i name="divisions" type="int">      20</i>
   <v>       0.00000000       0.00000000       0.00000000 </v>
   <v>       0.00000000       0.50000000       0.00000000 </v>
   <v>       0.50000000       0.50000000       0.00000000 </v>
   <v>       0.00000000       0.00000000       0.00000000 </v>
   <v>       0.50000000       0.50000000       0.50000000 </v>
   <v>       0.50000000       0.50000000       0.00000000 </v>
   <v>       0.50000000       0.50000000       0.50000000 </v>
  </generation>
  <varray name="kpointlist" >
   <v>       0.00000000       0.00000000       0.00000000 </v>
   <v>       0.00000000       0.02631579       0.00000000 </v>
   <v>       0.00000000       0.05263158       0.00000000 </v>
   <v>       0.00000000       0.07894737       0.00000000 </v>
   <v>       0.00000000       0.10526316       0.00000000 </v>
   <v>       0.00000000       0.13157895       0.00000000 </v>
   <v>       0.00000000       0.15789474       0.00000000 </v>
   <v>       0.00000000       0.18421053       0.00000000 </v>
   <v>       0.00000000       0.21052632       0.00000000 </v>
   <v>       0.00000000       0.23684211       0.00000000 </v>
   <v>       0.00000000       0.26315789       0.00000000 </v>
   <v>       0.00000000       0.28947368       0.00000000 </v>
   <v>       0.00000000       0.31578947       0.00000000 </v>
   <v>       0.00000000       0.34210526       0.00000000 </v>
   <v>       0.00000000       0.36842105       0.00000000 </v>
   <v>       0.00000000       0.39473684       0.00000000 </v>
   <v>       0.00000000       0.42105263       0.00000000 </v>
   <v>       0.00000000       0.44736842       0.00000000 </v>
   <v>       0.00000000       0.47368421       0.00000000 </v>
   <v>       0.00000000       0.50000000       0.00000000 </v>
   <v>       0.00000000       0.50000000       0.00000000 </v>
   <v>       0.02631579       0.50000000       0.00000000 </v>
   <v>       0.05263158       0.50000000       0.00000000 </v>
   <v>       0.07894737       0.50000000       0.00000000 </v>
   <v>       0.10526316       0.50000000       0.00000000 </v>
   <v>       0.13157895       0.50000000       0.00000000 </v>
   <v>       0.15789474       0.50000000       0.00000000 </v>
   <v>       0.18421053       0.50000000       0.00000000 </v>
   <v>       0.21052632       0.50000000       0.00000000 </v>
   <v>       0.23684211       0.50000000       0.00000000 </v>
   <v>       0.26315789       0.50000000       0.00000000 </v>
   <v>       0.28947368       0.50000000       0.00000000 </v>
   <v>       0.31578947       0.50000000       0.00000000 </v>
   <v>       0.34210526       0.50000000       0.00000000 </v>
   <v>       0.36842105       0.50000000       0.00000000 </v>
   <v>       0.39473684       0.50000000       0.00000000 </v>
   <v>       0.42105263       0.50000000       0.00000000 </v>
   <v>       0.44736842       0.50000000       0.00000000 </v>
   <v>       0.47368421       0.50000000       0.00000000 </v>
   <v>       0.50000000       0.50000000       0.00000000 </v>
   <v>       0.50000000       0.50000000       0.00000000 </v>
   <v>       0.47368421       0.47368421       0.00000000 </v>
   <v>       0.44736842       0.44736842       0.00000000 </v>
   <v>       0.42105263       0.42105263       0.00000000 </v>
   <v>       0.39473684       0.39473684       0.00000000 </v>
   <v>       0.36842105       0.36842105       0.00000000 </v>
   <v>       0.34210526       0.34210526       0.00000000 </v>
   <v>       0.31578947       0.31578947       0.00000000 </v>
   <v>       0.28947368       0.28947368       0.00000000 </v>
   <v>       0.26315789       0.26315789       0.00000000 </v>
   <v>       0.23684211       0.23684211       0.00000000 </v>
   <v>       0.21052632       0.21052632       0.00000000 </v>
   <v>       0.18421053       0.18421053       0.00000000 </v>
   <v>       0.15789474       0.15789474       0.00000000 </v>
   <v>       0.13157895       0.13157895       0.00000000 </v>
   <v>       0.10526316       0.10526316       0.00000000 </v>
   <v>       0.07894737       0.07894737       0.00000000 </v>
   <v>       0.05263158       0.05263158       0.00000000 </v>
   <v>       0.02631579       0.02631579       0.00000000 </v>
   <v>       0.00000000       0.00000000       0.00000000 </v>
   <v>       0.00000000       0.00000000       0.00000000 </v>
   <v>       0.02631579       0.02631579       0.02631579 </v>
   <v>       0.05263158       0.05263158       0.05263158 </v>
   <v>       0.07894737       0.07894737       0.07894737 </v>
   <v>       0.10526316       0.10526316       0.10526316 </v>
   <v>       0.13157895       0.13157895       0.13157895 </v>
   <v>       0.15789474       0.15789474       0.15789474 </v>
   <v>       0.18421053       0.18421053       0.18421053 </v>
   <v>       0.21052632       0.21052632       0.21052632 </v>
   <v>       0.23684211       0.23684211       0.23684211 </v>
   <v>       0.26315789       0.26315789       0.26315789 </v>
   <v>       0.28947368       0.28947368       0.28947368 </v>
   <v>       0.31578947       0.31578947       0.31578947 </v>
   <v>       0.34210526       0.34210526       0.34210526 </v>
   <v>       0.36842105       0.36842105       0.36842105 </v>
   <v>       0.39473684       0.39473684       0.39473684 </v>
   <v>       0.42105263       0.42105263       0.42105263 </v>
   <v>       0.44736842       0.44736842       0.44736842 </v>
   <v>       0.47368421       0.47368421       0.47368421 </v>
   <v>       0.50000000       0.50000000       0.50000000 </v>
   <v>       0.50000000       0.50000000       0.50000000 </v>
   <v>       0.47368421       0.50000000       0.47368421 </v>
   <v>       0.44736842       0.50000000       0.44736842 </v>
   <v>       0.42105263       0.50000000       0.42105263 </v>
   <v>       0.39473684       0.50000000       0.39473684 </v>
   <v>       0.36842105       0.50000000       0.36842105 </v>
   <v>       0.34210526       0.50000000       0.34210526 </v>
   <v>       0.31578947       0.50000000       0.31578947 </v>
   <v>       0.28947368       0.50000000       0.28947368 </v>
   <v>       0.26315789       0.50000000       0.26315789 </v>
   <v>       0.23684211       0.50000000       0.23684211 </v>
   <v>       0.21052632       0.50000000       0.21052632 </v>
   <v>       0.18421053       0.50000000       0.18421053 </v>
   <v>       0.15789474       0.50000000       0.15789474 </v>
   <v>       0.13157895       0.50000000       0.13157895 </v>
   <v>       0.10526316       0.50000000       0.10526316 </v>
   <v>       0.07894737       0.50000000       0.07894737 </v>
   <v>       0.05263158       0.50000000       0.05263158 </v>
   <v>       0.02631579       0.50000000       0.02631579 </v>
   <v>       0.00000000       0.50000000       0.00000000 </v>
   <v>       0.50000000       0.50000000       0.00000000 </v>
   <v>       0.50000000       0.50000000       0.02631579 </v>
   <v>       0.50000000       0.50000000       0.05263158 </v>
   <v>       0.50000000       0.50000000       0.07894737 </v>
   <v>       0.50000000       0.50000000       0.10526316 </v>
   <v>       0.50000000       0.50000000       0.13157895 </v>
   <v>       0.50000000       0.50000000       0.15789474 </v>
   <v>       0.50000000       0.50000000       0.18421053 </v>
   <v>       0.50000000       0.50000000       0.21052632 </v>
   <v>       0.50000000       0.50000000       0.23684211 </v>
   <v>       0.50000000       0.50000000       0.26315789 </v>
   <v>       0.50000000       0.50000000       0.28947368 </v>
   <v>       0.50000000       0.50000000       0.31578947 </v>
   <v>       0.50000000       0.50000000       0.34210526 </v>
   <v>       0.50000000       0.50000000       0.36842105 </v>
   <v>       0.50000000       0.50000000       0.39473684 </v>
   <v>       0.50000000       0.50000000       0.42105263 </v>
   <v>       0.50000000       0.50000000       0.44736842 </v>
   <v>       0.50000000       0.50000000       0.47368421 </v>
   <v>       0.50000000       0.50000000       0.50000000 </v>
  </varray>
  <varray name="weights" >
   <v>       0.00833333 </v>
   <v>       0.00833333 </v>
   <v>       0.00833333 </v>
   <v>       0.00833333 </v>
   <v>       0.00833333 </v>
   <v>       0.00833333 </v>
   <v>       0.00833333 </v>
   <v>       0.00833333 </v>
   <v>       0.00833333 </v>
   <v>       0.00833333 </v>
   <v>       0.00833333 </v>
   <v>       0.00833333 </v>
   <v>       0.00833333 </v>
   <v>       0.00833333 </v>
   <v>       0.00833333 </v>
   <v>       0.00833333 </v>
   <v>       0.00833333 </v>
   <v>       0.00833333 </v>
   <v>       0.00833333 </v>
   <v>       0.00833333 </v>
   <v>       0.00833333 </v>
   <v>       0.00833333 </v>
   <v>       0.00833333 </v>
   <v>       0.00833333 </v>
   <v>       0.00833333 </v>
   <v>       0.00833333 </v>
   <v>       0.00833333 </v>
   <v>       0.00833333 </v>
   <v>       0.00833333 </v>
   <v>       0.00833333 </v>
   <v>       0.00833333 </v>
   <v>       0.00833333 </v>
   <v>       0.00833333 </v>
   <v>       0.00833333 </v>
   <v>       0.00833333 </v>
   <v>       0.00833333 </v>
   <v>       0.00833333 </v>
   <v>       0.00833333 </v>
   <v>       0.00833333 </v>
   <v>       0.00833333 </v>
   <v>       0.00833333 </v>
   <v>       0.00833333 </v>
   <v>       0.00833333 </v>
   <v>       0.00833333 </v>
   <v>       0.00833333 </v>
   <v>       0.00833333 </v>
   <v>       0.00833333 </v>
   <v>       0.00833333 </v>
   <v>       0.00833333 </v>
   <v>       0.00833333 </v>
   <v>       0.00833333 </v>
   <v>       0.00833333 </v>
   <v>       0.00833333 </v>
   <v>       0.00833333 </v>
   <v>       0.00833333 </v>
   <v>       0.00833333 </v>
   <v>       0.00833333 </v>
   <v>       0.00833333 </v>
   <v>       0.00833333 </v>
   <v>       0.00833333 </v>
   <v>       0.00833333 </v>
   <v>       0.00833333 </v>
   <v>       0.00833333 </v>
   <v>       0.00833333 </v>
   <v>       0.00833333 </v>
   <v>       0.00833333 </v>
   <v>       0.00833333 </v>
   <v>       0.00833333 </v>
   <v>       0.00833333 </v>
   <v>       0.00833333 </v>
   <v>       0.00833333 </v>
   <v>       0.00833333 </v>
   <v>       0.00833333 </v>
   <v>       0.00833333 </v>
   <v>       0.00833333 </v>
   <v>       0.00833333 </v>
   <v>       0.00833333 </v>
   <v>       0.00833333 </v>
   <v>       0.00833333 </v>
   <v>       0.00833333 </v>
   <v>       0.00833333 </v>
   <v>       0.00833333 </v>
   <v>       0.00833333 </v>
   <v>       0.00833333 </v>
   <v>       0.00833333 </v>
   <v>       0.00833333 </v>
   <v>       0.00833333 </v>
   <v>       0.00833333 </v>
   <v>       0.00833333 </v>
   <v>       0.00833333 </v>
   <v>       0.00833333 </v>
   <v>       0.00833333 </v>
   <v>       0.00833333 </v>
   <v>       0.00833333 </v>
   <v>       0.00833333 </v>
   <v>       0.00833333 </v>
   <v>       0.00833333 </v>
   <v>       0.00833333 </v>
   <v>       0.00833333 </v>
   <v>       0.00833333 </v>
   <v>       0.00833333 </v>
   <v>       0.00833333 </v>
   <v>       0.00833333 </v>
   <v>       0.00833333 </v>
   <v>       0.00833333 </v>
   <v>       0.00833333 </v>
   <v>       0.00833333 </v>
   <v>       0.00833333 </v>
   <v>       0.00833333 </v>
   <v>       0.00833333 </v>
   <v>       0.00833333 </v>
   <v>       0.00833333 </v>
   <v>       0.00833333 </v>
   <v>       0.00833333 </v>
   <v>       0.00833333 </v>
   <v>       0.00833333 </v>
   <v>       0.00833333 </v>
   <v>       0.00833333 </v>
   <v>       0.00833333 </v>
   <v>       0.00833333 </v>
  </varray>
 </kpoints>
 <parameters>
  <separator name="general" >
   <i type="string" name="SYSTEM">CoGe_hO.T0009.BAC:LDAU2</i>
   <i type="logical" name="LCOMPAT"> F  </i>
  </separator>
  <separator name="electronic" >
   <i type="string" name="PREC">high</i>
   <i name="ENMAX">    574.59500000</i>
   <i name="ENAUG">    731.74400000</i>
   <i name="EDIFF">      0.00010000</i>
   <i type="int" name="IALGO">    38</i>
   <i type="int" name="IWAVPR">    10</i>
   <i type="int" name="NBANDS">    74</i>
   <i name="NELECT">     41.00000000</i>
   <separator name="electronic smearing" >
    <i type="int" name="ISMEAR">     0</i>
    <i name="SIGMA">      0.05000000</i>
   </separator>
   <separator name="electronic projectors" >
    <i type="logical" name="LREAL"> F  </i>
    <v name="ROPT">      0.00000000      0.00000000      0.00000000</v>
    <i type="int" name="LMAXPAW">  -100</i>
    <i type="int" name="LMAXMIX">     4</i>
   </separator>
   <separator name="electronic startup" >
    <i type="int" name="ISTART">     0</i>
    <i type="int" name="ICHARG">    11</i>
    <i type="int" name="INIWAV">     1</i>
   </separator>
   <separator name="electronic spin" >
    <i type="int" name="ISPIN">     2</i>
    <i type="logical" name="LNONCOLLINEAR"> F  </i>
    <v name="MAGMOM">      1.00000000      1.00000000      1.00000000      1.00000000      1.00000000</v>
    <i name="NUPDOWN">     -1.00000000</i>
    <i type="logical" name="LSORBIT"> F  </i>
    <v name="SAXIS">      0.00000000      0.00000000      1.00000000</v>
    <i type="logical" name="LSPIRAL"> F  </i>
    <v name="QSPIRAL">      0.00000000      0.00000000      0.00000000</v>
    <i type="logical" name="LZEROZ"> F  </i>
   </separator>
   <separator name="electronic exchange-correlation" >
    <i type="string" name="GGA">--</i>
    <i type="int" name="VOSKOWN">     0</i>
    <i type="logical" name="LASPH"> F  </i>
    <i type="logical" name="LMETAGGA"> F  </i>
    <i type="string" name="GGA2">--</i>
   </separator>
   <separator name="electronic convergence" >
    <i type="int" name="NELM">   120</i>
    <i type="int" name="NELMDL">     0</i>
    <i type="int" name="NELMIN">     2</i>
    <i name="ENINI">    574.59500000</i>
    <separator name="electronic convergence detail" >
     <i type="logical" name="LDIAG"> T  </i>
     <i name="WEIMIN">      0.00000000</i>
     <i name="EBREAK">      0.00000034</i>
     <i name="DEPER">      0.30000000</i>
     <i type="int" name="NRMM">     4</i>
     <i name="TIME">      0.10000000</i>
    </separator>
   </separator>
   <separator name="electronic mixer" >
    <i name="AMIX">      0.40000000</i>
    <i name="BMIX">      1.00000000</i>
    <i name="AMIN">      0.10000000</i>
    <i name="AMIX_MAG">      1.60000000</i>
    <i name="BMIX_MAG">      1.00000000</i>
    <separator name="electronic mixer details" >
     <i type="int" name="IMIX">     4</i>
     <i type="int" name="MAXMIX">   -45</i>
     <i name="WC">    100.00000000</i>
     <i type="int" name="INIMIX">     1</i>
     <i type="int" name="MIXPRE">     1</i>
     <i type="int" name="MREMOVE">     5</i>
    </separator>
   </separator>
   <separator name="electronic dipolcorrection" >
    <i type="int" name="IDIPOL">     0</i>
    <i type="logical" name="LDIPOL"> F  </i>
    <v name="DIPOL">   -100.00000000</v>
    <i name="EFIELD">      0.00000000</i>
   </separator>
  </separator>
  <separator name="grids" >
   <i type="int" name="NGX">    30</i>
   <i type="int" name="NGY">    30</i>
   <i type="int" name="NGZ">    30</i>
   <i type="int" name="NGXF">    48</i>
   <i type="int" name="NGYF">    48</i>
   <i type="int" name="NGZF">    48</i>
   <i type="logical" name="ADDGRID"> F  </i>
  </separator>
  <separator name="ionic" >
   <i type="int" name="NSW">     0</i>
   <i type="int" name="IBRION">    -1</i>
   <i type="int" name="ISIF">     2</i>
   <i name="PSTRESS">      0.00000000</i>
   <i name="EDIFFG">      0.00100000</i>
   <i type="int" name="NFREE">     1</i>
   <i name="POTIM">      0.50000000</i>
   <i name="SMASS">     -3.00000000</i>
  </separator>
  <separator name="ionic md" >
   <i name="TEBEG">      0.00010000</i>
   <i name="TEEND">      0.00010000</i>
   <i type="int" name="NBLOCK">     1</i>
   <i type="int" name="KBLOCK">     1</i>
   <i type="int" name="NPACO">   256</i>
   <i name="APACO">     16.00000000</i>
  </separator>
  <separator name="symmetry" >
   <i type="int" name="ISYM">     2</i>
   <i name="SYMPREC">      0.00001000</i>
  </separator>
  <separator name="dos" >
   <i type="logical" name="LORBIT"> F  </i>
   <v name="RWIGS">     -1.00000000     -1.00000000     -1.00000000</v>
   <i type="int" name="NEDOS">   301</i>
   <i name="EMIN">     10.00000000</i>
   <i name="EMAX">    -10.00000000</i>
  </separator>
  <separator name="writing" >
   <i type="int" name="NWRITE">     2</i>
   <i type="logical" name="LWAVE"> F  </i>
   <i type="logical" name="LCHARG"> F  </i>
   <i type="logical" name="LPARD"> F  </i>
   <i type="logical" name="LVTOT"> F  </i>
   <i type="logical" name="LELF"> F  </i>
   <i type="logical" name="LOPTICS"> F  </i>
   <v name="STM">      0.00000000      0.00000000      0.00000000      0.00000000      0.00000000</v>
  </separator>
  <separator name="performance" >
   <i type="int" name="NPAR">     2</i>
   <i type="int" name="NSIM">     4</i>
   <i type="int" name="NBLK">   160</i>
   <i type="logical" name="LPLANE"> T  </i>
   <i type="logical" name="LCRITICAL_MEM"> F  </i>
   <i type="logical" name="LSCALAPACK"> F  </i>
   <i type="logical" name="LSCALU"> F  </i>
   <i type="logical" name="LASYNC"> F  </i>
  </separator>
  <separator name="miscellaneous" >
   <i type="int" name="IDIOT">     3</i>
   <i type="logical" name="LMUSIC"> F  </i>
   <v name="POMASS">     58.93300000     72.61000000     16.00000000</v>
   <i type="logical" name="LCORR"> T  </i>
  </separator>
  <i type="logical" name="LREAL_COMPAT"> F  </i>
  <i type="logical" name="GGA_COMPAT"> T  </i>
  <i type="logical" name="LBERRY"> F  </i>
  <i type="int" name="ICORELEVEL">     0</i>
  <i type="logical" name="LDAU"> T  </i>
  <v type="int" name="LDAUTYPE">     2</v>
  <v type="int" name="LDAUL">     2</v>
  <v name="LDAUU">      5.00000000</v>
  <v name="LDAUJ">      0.00000000</v>
  <i type="int" name="LDAUPRINT">     0</i>
  <i type="int" name="I_CONSTRAINED_M">     0</i>
 </parameters>
 <atominfo>
  <atoms>       5</atoms>
  <types>       3</types>
  <array name="atoms" >
   <dimension dim="1">ion</dimension>
   <field type="string">element</field>
   <field type="int">atomtype</field>
   <set>
    <rc><c>Co</c><c>   1</c></rc>
    <rc><c>Ge</c><c>   2</c></rc>
    <rc><c>O </c><c>   3</c></rc>
    <rc><c>O </c><c>   3</c></rc>
    <rc><c>O </c><c>   3</c></rc>
   </set>
  </array>
  <array name="atomtypes" >
   <dimension dim="1">type</dimension>
   <field type="int">atomspertype</field>
   <field type="string">element</field>
   <field>mass</field>
   <field>valence</field>
   <field type="string">pseudopotential</field>
   <set>
    <rc><c>   1</c><c>Co</c><c>     58.93300000</c><c>      9.00000000</c><c> PAW_PBE Co 06Sep2000                   </c></rc>
    <rc><c>   1</c><c>Ge</c><c>     72.61000000</c><c>     14.00000000</c><c> PAW_PBE Ge_h 09Apr2002                 </c></rc>
    <rc><c>   3</c><c>O </c><c>     16.00000000</c><c>      6.00000000</c><c> PAW_PBE O 08Apr2002                    </c></rc>
   </set>
  </array>
 </atominfo>
 <structure name="initialpos" >
  <crystal>
   <varray name="basis" >
    <v>       3.76292311       0.00000000       0.00000000 </v>
    <v>       0.00000000       3.76292311       0.00000000 </v>
    <v>       0.00000000       0.00000000       3.76292311 </v>
   </varray>
   <i name="volume">     53.28144983</i>
   <varray name="rec_basis" >
    <v>       0.26575085       0.00000000       0.00000000 </v>
    <v>       0.00000000       0.26575085       0.00000000 </v>
    <v>       0.00000000       0.00000000       0.26575085 </v>
   </varray>
  </crystal>
  <varray name="positions" >
   <v>       0.50000000       0.50000000       0.50000000 </v>
   <v>       0.00000000       0.00000000       0.00000000 </v>
   <v>       0.00000000       0.50000000       0.50000000 </v>
   <v>       0.50000000       0.00000000       0.50000000 </v>
   <v>       0.50000000       0.50000000       0.00000000 </v>
  </varray>
 </structure>
 <calculation>
  <scstep>
   <time name="dav">   50.17   50.51</time>
   <time name="total">   50.26   51.79</time>
   <energy>
    <i name="alphaZ">    183.06073660</i>
    <i name="ewald">  -3338.73904085</i>
    <i name="hartreedc">  -1182.99606082</i>
    <i name="XCdc">    139.21648247</i>
    <i name="pawpsdc">   3231.11248199</i>
    <i name="pawaedc">  -3509.74274813</i>
    <i name="eentropy">     -0.00156231</i>
    <i name="bandstr">    211.28847155</i>
    <i name="atom">   4706.85417012</i>
    <i name="e_fr_energy">    440.05293064</i>
    <i name="e_wo_entrp">    440.05449295</i>
    <i name="e_0_energy">    440.05371179</i>
   </energy>
  </scstep>
  <scstep>
   <time name="dav">   23.28   24.66</time>
   <time name="total">   23.34   76.57</time>
   <energy>
    <i name="e_fr_energy">     43.00068126</i>
    <i name="e_wo_entrp">     43.00308412</i>
    <i name="e_0_energy">     43.00188269</i>
   </energy>
  </scstep>
  <scstep>
   <time name="dav">   27.44   27.89</time>
   <time name="total">   27.49   59.96</time>
   <energy>
    <i name="e_fr_energy">    -23.78369581</i>
    <i name="e_wo_entrp">    -23.77850579</i>
    <i name="e_0_energy">    -23.78110080</i>
   </energy>
  </scstep>
  <scstep>
   <time name="dav">   25.74   25.78</time>
   <time name="total">   25.78   27.54</time>
   <energy>
    <i name="e_fr_energy">    -25.95948977</i>
    <i name="e_wo_entrp">    -25.95360540</i>
    <i name="e_0_energy">    -25.95654759</i>
   </energy>
  </scstep>
  <scstep>
   <time name="dav">   28.75   32.38</time>
   <time name="total">   28.80   46.73</time>
   <energy>
    <i name="e_fr_energy">    -25.97412343</i>
    <i name="e_wo_entrp">    -25.96823488</i>
    <i name="e_0_energy">    -25.97117916</i>
   </energy>
  </scstep>
  <scstep>
   <time name="dav">   35.71   38.43</time>
   <time name="total">   35.76   43.83</time>
   <energy>
    <i name="e_fr_energy">    -25.97428094</i>
    <i name="e_wo_entrp">    -25.96839234</i>
    <i name="e_0_energy">    -25.97133664</i>
   </energy>
  </scstep>
  <scstep>
   <time name="dav">   29.19   33.07</time>
   <time name="total">   29.24   54.97</time>
   <energy>
    <i name="alphaZ">    183.06073660</i>
    <i name="ewald">  -3338.73904085</i>
    <i name="hartreedc">  -1182.99606082</i>
    <i name="XCdc">    139.21648247</i>
    <i name="pawpsdc">   3231.11248199</i>
    <i name="pawaedc">  -3509.74274813</i>
    <i name="eentropy">     -0.00588860</i>
    <i name="bandstr">   -254.73441640</i>
    <i name="atom">   4706.85417012</i>
    <i name="e_fr_energy">    -25.97428361</i>
    <i name="e_wo_entrp">    -25.96839501</i>
    <i name="e_0_energy">    -25.97133931</i>
   </energy>
  </scstep>
  <structure>
   <crystal>
    <varray name="basis" >
     <v>       3.76292311       0.00000000       0.00000000 </v>
     <v>       0.00000000       3.76292311       0.00000000 </v>
     <v>       0.00000000       0.00000000       3.76292311 </v>
    </varray>
    <i name="volume">     53.28144983</i>
    <varray name="rec_basis" >
     <v>       0.26575085       0.00000000       0.00000000 </v>
     <v>       0.00000000       0.26575085       0.00000000 </v>
     <v>       0.00000000       0.00000000       0.26575085 </v>
    </varray>
   </crystal>
   <varray name="positions" >
    <v>       0.50000000       0.50000000       0.50000000 </v>
    <v>       0.00000000       0.00000000       0.00000000 </v>
    <v>       0.00000000       0.50000000       0.50000000 </v>
    <v>       0.50000000       0.00000000       0.50000000 </v>
    <v>       0.50000000       0.50000000       0.00000000 </v>
   </varray>
  </structure>
  <varray name="forces" >
   <v>       0.00000000       0.00000000       0.00000000 </v>
   <v>       0.00000000       0.00000000       0.00000000 </v>
   <v>       0.00000000       0.00000000       0.00000000 </v>
   <v>       0.00000000       0.00000000       0.00000000 </v>
   <v>       0.00000000       0.00000000       0.00000000 </v>
  </varray>
  <varray name="stress" >
   <v>    -130.88513100       0.00000000       0.00000000 </v>
   <v>       0.00000000    -130.88513100       0.00000000 </v>
   <v>      -0.00000000      -0.00000000    -130.88513100 </v>
  </varray>
  <energy>
   <i name="e_fr_energy">    -25.97428361</i>
   <i name="e_wo_entrp">    -25.97133931</i>
   <i name="e_0_energy">     -0.00588860</i>
  </energy>
  <eigenvalues>
   <array>
    <dimension dim="1">band</dimension>
    <dimension dim="2">kpoint</dimension>
    <dimension dim="3">spin</dimension>
    <field>eigene</field>
    <field>occ</field>
    <set>
     <set comment="spin 1">
      <set comment="kpoint 1">
       <r> -19.8818  1.0000</r>
       <r> -19.8818  1.0000</r>
       <r> -19.8685  1.0000</r>
       <r> -19.8685  1.0000</r>
       <r> -19.8685  1.0000</r>
       <r> -14.5131  1.0000</r>
       <r> -12.7208  1.0000</r>
       <r> -12.7207  1.0000</r>
       <r>  -1.2917  1.0000</r>
       <r>  -1.2816  1.0000</r>
       <r>  -1.2816  1.0000</r>
       <r>  -1.2816  1.0000</r>
       <r>  -0.5776  1.0000</r>
       <r>  -0.5776  1.0000</r>
       <r>  -0.5776  1.0000</r>
       <r>   0.0234  1.0000</r>
       <r>   0.0234  1.0000</r>
       <r>   2.9072  1.0000</r>
       <r>   2.9072  1.0000</r>
       <r>   2.9072  1.0000</r>
       <r>   3.1719  1.0000</r>
       <r>   3.1719  1.0000</r>
       <r>   3.1719  1.0000</r>
       <r>  10.6149  0.0000</r>
       <r>  10.6149  0.0000</r>
       <r>  10.6149  0.0000</r>
       <r>  14.1595  0.0000</r>
       <r>  14.1595  0.0000</r>
       <r>  14.7225  0.0000</r>
       <r>  18.1516  0.0000</r>
       <r>  18.1516  0.0000</r>
       <r>  18.1516  0.0000</r>
       <r>  21.9760  0.0000</r>
       <r>  24.5464  0.0000</r>
       <r>  24.5464  0.0000</r>
       <r>  24.5464  0.0000</r>
       <r>  27.0829  0.0000</r>
       <r>  27.0829  0.0000</r>
       <r>  27.0829  0.0000</r>
       <r>  28.4903  0.0000</r>
       <r>  29.4307  0.0000</r>
       <r>  29.4307  0.0000</r>
       <r>  29.4307  0.0000</r>
       <r>  34.9518  0.0000</r>
       <r>  34.9518  0.0000</r>
       <r>  34.9518  0.0000</r>
       <r>  35.8712  0.0000</r>
       <r>  35.8712  0.0000</r>
       <r>  41.1187  0.0000</r>
       <r>  41.1187  0.0000</r>
       <r>  41.7176  0.0000</r>
       <r>  42.9197  0.0000</r>
       <r>  42.9197  0.0000</r>
       <r>  42.9197  0.0000</r>
       <r>  43.5931  0.0000</r>
       <r>  43.5931  0.0000</r>
       <r>  45.8249  0.0000</r>
       <r>  45.8249  0.0000</r>
       <r>  45.8249  0.0000</r>
       <r>  46.2006  0.0000</r>
       <r>  46.2165  0.0000</r>
       <r>  46.2165  0.0000</r>
       <r>  46.2165  0.0000</r>
       <r>  46.2334  0.0000</r>
       <r>  46.2334  0.0000</r>
       <r>  46.2334  0.0000</r>
       <r>  51.6666  0.0000</r>
       <r>  51.6666  0.0000</r>
       <r>  51.6666  0.0000</r>
       <r>  53.2204  0.0000</r>
       <r>  54.9934  0.0000</r>
       <r>  55.0038  0.0000</r>
       <r>  55.8898  0.0000</r>
       <r>  56.0170  0.0000</r>
      </set>
      <set comment="kpoint 2">
       <r> -19.8816  1.0000</r>
       <r> -19.8815  1.0000</r>
       <r> -19.8683  1.0000</r>
       <r> -19.8683  1.0000</r>
       <r> -19.8683  1.0000</r>
       <r> -14.5096  1.0000</r>
       <r> -12.7211  1.0000</r>
       <r> -12.7205  1.0000</r>
       <r>  -1.3322  1.0000</r>
       <r>  -1.2899  1.0000</r>
       <r>  -1.2899  1.0000</r>
       <r>  -1.2815  1.0000</r>
       <r>  -0.6067  1.0000</r>
       <r>  -0.5674  1.0000</r>
       <r>  -0.5674  1.0000</r>
       <r>   0.0234  1.0000</r>
       <r>   0.0816  1.0000</r>
       <r>   2.9035  1.0000</r>
       <r>   2.9079  1.0000</r>
       <r>   2.9079  1.0000</r>
       <r>   3.1711  1.0000</r>
       <r>   3.1711  1.0000</r>
       <r>   3.1846  1.0000</r>
       <r>  10.5792  0.0000</r>
       <r>  10.6059  0.0000</r>
       <r>  10.6059  0.0000</r>
       <r>  14.1722  0.0000</r>
       <r>  14.1959  0.0000</r>
       <r>  14.7384  0.0000</r>
       <r>  18.1576  0.0000</r>
       <r>  18.1648  0.0000</r>
       <r>  18.1648  0.0000</r>
       <r>  21.9817  0.0000</r>
       <r>  24.5487  0.0000</r>
       <r>  24.5489  0.0000</r>
       <r>  24.5489  0.0000</r>
       <r>  26.9215  0.0000</r>
       <r>  27.0821  0.0000</r>
       <r>  27.0821  0.0000</r>
       <r>  28.6668  0.0000</r>
       <r>  29.4078  0.0000</r>
       <r>  29.4338  0.0000</r>
       <r>  29.4338  0.0000</r>
       <r>  34.6390  0.0000</r>
       <r>  34.9715  0.0000</r>
       <r>  34.9715  0.0000</r>
       <r>  35.8775  0.0000</r>
       <r>  36.1319  0.0000</r>
       <r>  41.0908  0.0000</r>
       <r>  41.1308  0.0000</r>
       <r>  41.7001  0.0000</r>
       <r>  42.7582  0.0000</r>
       <r>  42.8760  0.0000</r>
       <r>  42.8760  0.0000</r>
       <r>  43.5381  0.0000</r>
       <r>  43.8614  0.0000</r>
       <r>  45.4012  0.0000</r>
       <r>  45.4012  0.0000</r>
       <r>  45.8291  0.0000</r>
       <r>  45.9791  0.0000</r>
       <r>  46.0669  0.0000</r>
       <r>  46.0669  0.0000</r>
       <r>  46.2374  0.0000</r>
       <r>  46.5116  0.0000</r>
       <r>  46.8401  0.0000</r>
       <r>  46.8401  0.0000</r>
       <r>  51.5633  0.0000</r>
       <r>  51.6569  0.0000</r>
       <r>  51.6569  0.0000</r>
       <r>  53.1188  0.0000</r>
       <r>  54.7404  0.0000</r>
       <r>  55.1137  0.0000</r>
       <r>  55.6958  0.0000</r>
       <r>  56.0075  0.0000</r>
      </set>
      <set comment="kpoint 3">
       <r> -19.8814  1.0000</r>
       <r> -19.8812  1.0000</r>
       <r> -19.8683  1.0000</r>
       <r> -19.8683  1.0000</r>
       <r> -19.8682  1.0000</r>
       <r> -14.4991  1.0000</r>
       <r> -12.7225  1.0000</r>
       <r> -12.7198  1.0000</r>
       <r>  -1.4409  1.0000</r>
       <r>  -1.3134  1.0000</r>
       <r>  -1.3134  1.0000</r>
       <r>  -1.2813  1.0000</r>
       <r>  -0.6796  1.0000</r>
       <r>  -0.5388  1.0000</r>
       <r>  -0.5388  1.0000</r>
       <r>   0.0235  1.0000</r>
       <r>   0.2298  1.0000</r>
       <r>   2.8919  1.0000</r>
       <r>   2.9095  1.0000</r>
       <r>   2.9095  1.0000</r>
       <r>   3.1688  1.0000</r>
       <r>   3.1688  1.0000</r>
       <r>   3.2214  1.0000</r>
       <r>  10.4763  0.0000</r>
       <r>  10.5792  0.0000</r>
       <r>  10.5792  0.0000</r>
       <r>  14.2101  0.0000</r>
       <r>  14.2998  0.0000</r>
       <r>  14.7868  0.0000</r>
       <r>  18.1754  0.0000</r>
       <r>  18.2037  0.0000</r>
       <r>  18.2037  0.0000</r>
       <r>  21.9978  0.0000</r>
       <r>  24.5556  0.0000</r>
       <r>  24.5556  0.0000</r>
       <r>  24.5559  0.0000</r>
       <r>  26.5673  0.0000</r>
       <r>  27.0793  0.0000</r>
       <r>  27.0793  0.0000</r>
       <r>  29.0658  0.0000</r>
       <r>  29.3384  0.0000</r>
       <r>  29.4425  0.0000</r>
       <r>  29.4425  0.0000</r>
       <r>  34.0574  0.0000</r>
       <r>  35.0304  0.0000</r>
       <r>  35.0304  0.0000</r>
       <r>  35.8963  0.0000</r>
       <r>  36.5554  0.0000</r>
       <r>  40.9723  0.0000</r>
       <r>  41.1653  0.0000</r>
       <r>  41.6378  0.0000</r>
       <r>  42.6290  0.0000</r>
       <r>  42.7413  0.0000</r>
       <r>  42.7413  0.0000</r>
       <r>  43.3824  0.0000</r>
       <r>  44.3531  0.0000</r>
       <r>  44.7602  0.0000</r>
       <r>  44.7602  0.0000</r>
       <r>  45.8222  0.0000</r>
       <r>  45.8407  0.0000</r>
       <r>  46.1603  0.0000</r>
       <r>  46.1603  0.0000</r>
       <r>  46.2492  0.0000</r>
       <r>  46.8780  0.0000</r>
       <r>  47.4859  0.0000</r>
       <r>  47.4859  0.0000</r>
       <r>  51.2916  0.0000</r>
       <r>  51.6280  0.0000</r>
       <r>  51.6280  0.0000</r>
       <r>  52.8343  0.0000</r>
       <r>  54.3066  0.0000</r>
       <r>  55.0410  0.0000</r>
       <r>  55.0537  0.0000</r>
       <r>  55.5294  0.0000</r>
      </set>
      <set comment="kpoint 4">
       <r> -19.8813  1.0000</r>
       <r> -19.8808  1.0000</r>
       <r> -19.8684  1.0000</r>
       <r> -19.8684  1.0000</r>
       <r> -19.8682  1.0000</r>
       <r> -14.4818  1.0000</r>
       <r> -12.7249  1.0000</r>
       <r> -12.7189  1.0000</r>
       <r>  -1.5923  1.0000</r>
       <r>  -1.3488  1.0000</r>
       <r>  -1.3488  1.0000</r>
       <r>  -1.2811  1.0000</r>
       <r>  -0.7790  1.0000</r>
       <r>  -0.4950  1.0000</r>
       <r>  -0.4950  1.0000</r>
       <r>   0.0236  1.0000</r>
       <r>   0.4286  1.0000</r>
       <r>   2.8731  1.0000</r>
       <r>   2.9115  1.0000</r>
       <r>   2.9115  1.0000</r>
       <r>   3.1653  1.0000</r>
       <r>   3.1653  1.0000</r>
       <r>   3.2796  1.0000</r>
       <r>  10.3173  0.0000</r>
       <r>  10.5361  0.0000</r>
       <r>  10.5361  0.0000</r>
       <r>  14.2724  0.0000</r>
       <r>  14.4572  0.0000</r>
       <r>  14.8707  0.0000</r>
       <r>  18.2051  0.0000</r>
       <r>  18.2667  0.0000</r>
       <r>  18.2667  0.0000</r>
       <r>  22.0206  0.0000</r>
       <r>  24.5666  0.0000</r>
       <r>  24.5666  0.0000</r>
       <r>  24.5715  0.0000</r>
       <r>  26.1532  0.0000</r>
       <r>  27.0754  0.0000</r>
       <r>  27.0754  0.0000</r>
       <r>  29.2255  0.0000</r>
       <r>  29.4572  0.0000</r>
       <r>  29.4572  0.0000</r>
       <r>  29.5545  0.0000</r>
       <r>  33.4066  0.0000</r>
       <r>  35.1278  0.0000</r>
       <r>  35.1278  0.0000</r>
       <r>  35.9274  0.0000</r>
       <r>  36.9379  0.0000</r>
       <r>  40.7059  0.0000</r>
       <r>  41.2196  0.0000</r>
       <r>  41.5804  0.0000</r>
       <r>  42.5011  0.0000</r>
       <r>  42.5011  0.0000</r>
       <r>  42.7095  0.0000</r>
       <r>  43.1516  0.0000</r>
       <r>  44.1593  0.0000</r>
       <r>  44.1593  0.0000</r>
       <r>  44.9024  0.0000</r>
       <r>  45.7244  0.0000</r>
       <r>  45.8597  0.0000</r>
       <r>  46.2687  0.0000</r>
       <r>  46.3217  0.0000</r>
       <r>  46.3217  0.0000</r>
       <r>  47.2949  0.0000</r>
       <r>  48.0900  0.0000</r>
       <r>  48.0900  0.0000</r>
       <r>  50.9246  0.0000</r>
       <r>  51.5826  0.0000</r>
       <r>  51.5826  0.0000</r>
       <r>  52.4086  0.0000</r>
       <r>  53.8705  0.0000</r>
       <r>  54.3676  0.0000</r>
       <r>  54.5982  0.0000</r>
       <r>  55.8261  0.0000</r>
      </set>
      <set comment="kpoint 5">
       <r> -19.8812  1.0000</r>
       <r> -19.8803  1.0000</r>
       <r> -19.8685  1.0000</r>
       <r> -19.8685  1.0000</r>
       <r> -19.8682  1.0000</r>
       <r> -14.4579  1.0000</r>
       <r> -12.7286  1.0000</r>
       <r> -12.7175  1.0000</r>
       <r>  -1.7647  1.0000</r>
       <r>  -1.3921  1.0000</r>
       <r>  -1.3921  1.0000</r>
       <r>  -1.2807  1.0000</r>
       <r>  -0.8992  1.0000</r>
       <r>  -0.4400  1.0000</r>
       <r>  -0.4400  1.0000</r>
       <r>   0.0238  1.0000</r>
       <r>   0.6552  1.0000</r>
       <r>   2.8477  1.0000</r>
       <r>   2.9133  1.0000</r>
       <r>   2.9133  1.0000</r>
       <r>   3.1614  1.0000</r>
       <r>   3.1614  1.0000</r>
       <r>   3.3549  1.0000</r>
       <r>  10.1152  0.0000</r>
       <r>  10.4784  0.0000</r>
       <r>  10.4784  0.0000</r>
       <r>  14.3579  0.0000</r>
       <r>  14.6476  0.0000</r>
       <r>  14.9973  0.0000</r>
       <r>  18.2465  0.0000</r>
       <r>  18.3512  0.0000</r>
       <r>  18.3512  0.0000</r>
       <r>  22.0443  0.0000</r>
       <r>  24.5815  0.0000</r>
       <r>  24.5815  0.0000</r>
       <r>  24.6005  0.0000</r>
       <r>  25.7253  0.0000</r>
       <r>  27.0712  0.0000</r>
       <r>  27.0712  0.0000</r>
       <r>  29.0726  0.0000</r>
       <r>  29.4786  0.0000</r>
       <r>  29.4786  0.0000</r>
       <r>  30.0868  0.0000</r>
       <r>  32.7280  0.0000</r>
       <r>  35.2626  0.0000</r>
       <r>  35.2626  0.0000</r>
       <r>  35.9710  0.0000</r>
       <r>  37.2288  0.0000</r>
       <r>  40.3352  0.0000</r>
       <r>  41.2883  0.0000</r>
       <r>  41.5766  0.0000</r>
       <r>  42.1303  0.0000</r>
       <r>  42.1303  0.0000</r>
       <r>  42.8762  0.0000</r>
       <r>  42.9443  0.0000</r>
       <r>  43.6565  0.0000</r>
       <r>  43.6565  0.0000</r>
       <r>  45.4792  0.0000</r>
       <r>  45.6676  0.0000</r>
       <r>  45.8859  0.0000</r>
       <r>  46.2955  0.0000</r>
       <r>  46.5306  0.0000</r>
       <r>  46.5306  0.0000</r>
       <r>  47.7505  0.0000</r>
       <r>  48.6140  0.0000</r>
       <r>  48.6140  0.0000</r>
       <r>  50.5188  0.0000</r>
       <r>  51.5193  0.0000</r>
       <r>  51.5193  0.0000</r>
       <r>  51.8794  0.0000</r>
       <r>  53.4634  0.0000</r>
       <r>  53.7282  0.0000</r>
       <r>  53.7319  0.0000</r>
       <r>  55.4713  0.0000</r>
      </set>
      <set comment="kpoint 6">
       <r> -19.8810  1.0000</r>
       <r> -19.8798  1.0000</r>
       <r> -19.8687  1.0000</r>
       <r> -19.8687  1.0000</r>
       <r> -19.8682  1.0000</r>
       <r> -14.4278  1.0000</r>
       <r> -12.7337  1.0000</r>
       <r> -12.7159  1.0000</r>
       <r>  -1.9444  1.0000</r>
       <r>  -1.4401  1.0000</r>
       <r>  -1.4401  1.0000</r>
       <r>  -1.2802  1.0000</r>
       <r>  -1.0367  1.0000</r>
       <r>  -0.3771  1.0000</r>
       <r>  -0.3771  1.0000</r>
       <r>   0.0240  1.0000</r>
       <r>   0.8979  1.0000</r>
       <r>   2.8165  1.0000</r>
       <r>   2.9135  1.0000</r>
       <r>   2.9135  1.0000</r>
       <r>   3.1579  1.0000</r>
       <r>   3.1579  1.0000</r>
       <r>   3.4427  1.0000</r>
       <r>   9.8823  0.0000</r>
       <r>  10.4085  0.0000</r>
       <r>  10.4085  0.0000</r>
       <r>  14.4649  0.0000</r>
       <r>  14.8465  0.0000</r>
       <r>  15.1784  0.0000</r>
       <r>  18.2998  0.0000</r>
       <r>  18.4542  0.0000</r>
       <r>  18.4542  0.0000</r>
       <r>  22.0614  0.0000</r>
       <r>  24.6000  0.0000</r>
       <r>  24.6000  0.0000</r>
       <r>  24.6491  0.0000</r>
       <r>  25.2992  0.0000</r>
       <r>  27.0682  0.0000</r>
       <r>  27.0682  0.0000</r>
       <r>  28.8844  0.0000</r>
       <r>  29.5079  0.0000</r>
       <r>  29.5079  0.0000</r>
       <r>  30.6472  0.0000</r>
       <r>  32.0387  0.0000</r>
       <r>  35.4333  0.0000</r>
       <r>  35.4333  0.0000</r>
       <r>  36.0269  0.0000</r>
       <r>  37.3906  0.0000</r>
       <r>  39.9629  0.0000</r>
       <r>  41.3606  0.0000</r>
       <r>  41.6103  0.0000</r>
       <r>  41.6243  0.0000</r>
       <r>  41.6243  0.0000</r>
       <r>  42.5862  0.0000</r>
       <r>  43.2701  0.0000</r>
       <r>  43.2753  0.0000</r>
       <r>  43.2753  0.0000</r>
       <r>  45.6345  0.0000</r>
       <r>  45.9186  0.0000</r>
       <r>  46.0738  0.0000</r>
       <r>  46.3293  0.0000</r>
       <r>  46.7742  0.0000</r>
       <r>  46.7742  0.0000</r>
       <r>  48.2356  0.0000</r>
       <r>  49.0060  0.0000</r>
       <r>  49.0060  0.0000</r>
       <r>  50.1118  0.0000</r>
       <r>  51.2724  0.0000</r>
       <r>  51.4226  0.0000</r>
       <r>  51.4226  0.0000</r>
       <r>  53.1041  0.0000</r>
       <r>  53.2164  0.0000</r>
       <r>  53.2277  0.0000</r>
       <r>  55.1719  0.0000</r>
      </set>
      <set comment="kpoint 7">
       <r> -19.8808  1.0000</r>
       <r> -19.8792  1.0000</r>
       <r> -19.8688  1.0000</r>
       <r> -19.8688  1.0000</r>
       <r> -19.8682  1.0000</r>
       <r> -14.3919  1.0000</r>
       <r> -12.7403  1.0000</r>
       <r> -12.7140  1.0000</r>
       <r>  -2.1233  1.0000</r>
       <r>  -1.4902  1.0000</r>
       <r>  -1.4902  1.0000</r>
       <r>  -1.2797  1.0000</r>
       <r>  -1.1876  1.0000</r>
       <r>  -0.3090  1.0000</r>
       <r>  -0.3090  1.0000</r>
       <r>   0.0243  1.0000</r>
       <r>   1.1503  1.0000</r>
       <r>   2.7805  1.0000</r>
       <r>   2.9111  1.0000</r>
       <r>   2.9111  1.0000</r>
       <r>   3.1560  1.0000</r>
       <r>   3.1560  1.0000</r>
       <r>   3.5383  1.0000</r>
       <r>   9.6281  0.0000</r>
       <r>  10.3291  0.0000</r>
       <r>  10.3291  0.0000</r>
       <r>  14.5912  0.0000</r>
       <r>  15.0389  0.0000</r>
       <r>  15.4186  0.0000</r>
       <r>  18.3649  0.0000</r>
       <r>  18.5717  0.0000</r>
       <r>  18.5717  0.0000</r>
       <r>  22.0642  0.0000</r>
       <r>  24.6214  0.0000</r>
       <r>  24.6214  0.0000</r>
       <r>  24.7231  0.0000</r>
       <r>  24.8812  0.0000</r>
       <r>  27.0674  0.0000</r>
       <r>  27.0674  0.0000</r>
       <r>  28.6663  0.0000</r>
       <r>  29.5465  0.0000</r>
       <r>  29.5465  0.0000</r>
       <r>  31.2293  0.0000</r>
       <r>  31.3502  0.0000</r>
       <r>  35.6378  0.0000</r>
       <r>  35.6378  0.0000</r>
       <r>  36.0954  0.0000</r>
       <r>  37.3788  0.0000</r>
       <r>  39.6788  0.0000</r>
       <r>  41.0223  0.0000</r>
       <r>  41.0223  0.0000</r>
       <r>  41.4111  0.0000</r>
       <r>  41.6640  0.0000</r>
       <r>  42.3192  0.0000</r>
       <r>  42.9905  0.0000</r>
       <r>  42.9905  0.0000</r>
       <r>  43.6461  0.0000</r>
       <r>  45.6112  0.0000</r>
       <r>  45.9571  0.0000</r>
       <r>  46.3695  0.0000</r>
       <r>  46.6769  0.0000</r>
       <r>  47.0418  0.0000</r>
       <r>  47.0418  0.0000</r>
       <r>  48.7432  0.0000</r>
       <r>  49.1951  0.0000</r>
       <r>  49.1951  0.0000</r>
       <r>  49.7336  0.0000</r>
       <r>  50.6056  0.0000</r>
       <r>  51.2671  0.0000</r>
       <r>  51.2671  0.0000</r>
       <r>  52.7752  0.0000</r>
       <r>  52.9376  0.0000</r>
       <r>  52.9389  0.0000</r>
       <r>  54.7957  0.0000</r>
      </set>
      <set comment="kpoint 8">
       <r> -19.8806  1.0000</r>
       <r> -19.8785  1.0000</r>
       <r> -19.8691  1.0000</r>
       <r> -19.8691  1.0000</r>
       <r> -19.8682  1.0000</r>
       <r> -14.3508  1.0000</r>
       <r> -12.7487  1.0000</r>
       <r> -12.7119  1.0000</r>
       <r>  -2.2963  1.0000</r>
       <r>  -1.5406  1.0000</r>
       <r>  -1.5406  1.0000</r>
       <r>  -1.3478  1.0000</r>
       <r>  -1.2791  1.0000</r>
       <r>  -0.2378  1.0000</r>
       <r>  -0.2378  1.0000</r>
       <r>   0.0246  1.0000</r>
       <r>   1.4084  1.0000</r>
       <r>   2.7408  1.0000</r>
       <r>   2.9047  1.0000</r>
       <r>   2.9047  1.0000</r>
       <r>   3.1568  1.0000</r>
       <r>   3.1568  1.0000</r>
       <r>   3.6374  1.0000</r>
       <r>   9.3603  0.0000</r>
       <r>  10.2431  0.0000</r>
       <r>  10.2431  0.0000</r>
       <r>  14.7342  0.0000</r>
       <r>  15.2291  0.0000</r>
       <r>  15.7051  0.0000</r>
       <r>  18.4416  0.0000</r>
       <r>  18.6997  0.0000</r>
       <r>  18.6997  0.0000</r>
       <r>  22.0462  0.0000</r>
       <r>  24.4744  0.0000</r>
       <r>  24.6450  0.0000</r>
       <r>  24.6450  0.0000</r>
       <r>  24.8255  0.0000</r>
       <r>  27.0702  0.0000</r>
       <r>  27.0702  0.0000</r>
       <r>  28.4245  0.0000</r>
       <r>  29.5960  0.0000</r>
       <r>  29.5960  0.0000</r>
       <r>  30.6728  0.0000</r>
       <r>  31.8300  0.0000</r>
       <r>  35.8736  0.0000</r>
       <r>  35.8736  0.0000</r>
       <r>  36.1762  0.0000</r>
       <r>  37.1653  0.0000</r>
       <r>  39.5375  0.0000</r>
       <r>  40.3731  0.0000</r>
       <r>  40.3731  0.0000</r>
       <r>  41.3789  0.0000</r>
       <r>  41.7274  0.0000</r>
       <r>  42.1427  0.0000</r>
       <r>  42.7645  0.0000</r>
       <r>  42.7645  0.0000</r>
       <r>  44.0419  0.0000</r>
       <r>  45.5872  0.0000</r>
       <r>  46.0001  0.0000</r>
       <r>  46.4154  0.0000</r>
       <r>  47.2625  0.0000</r>
       <r>  47.3234  0.0000</r>
       <r>  47.3234  0.0000</r>
       <r>  49.1187  0.0000</r>
       <r>  49.1187  0.0000</r>
       <r>  49.2665  0.0000</r>
       <r>  49.4255  0.0000</r>
       <r>  49.8926  0.0000</r>
       <r>  51.0813  0.0000</r>
       <r>  51.0813  0.0000</r>
       <r>  52.5069  0.0000</r>
       <r>  52.9236  0.0000</r>
       <r>  52.9293  0.0000</r>
       <r>  54.4964  0.0000</r>
      </set>
      <set comment="kpoint 9">
       <r> -19.8804  1.0000</r>
       <r> -19.8778  1.0000</r>
       <r> -19.8694  1.0000</r>
       <r> -19.8694  1.0000</r>
       <r> -19.8681  1.0000</r>
       <r> -14.3051  1.0000</r>
       <r> -12.7590  1.0000</r>
       <r> -12.7096  1.0000</r>
       <r>  -2.4600  1.0000</r>
       <r>  -1.5901  1.0000</r>
       <r>  -1.5901  1.0000</r>
       <r>  -1.5132  1.0000</r>
       <r>  -1.2784  1.0000</r>
       <r>  -0.1650  1.0000</r>
       <r>  -0.1650  1.0000</r>
       <r>   0.0250  1.0000</r>
       <r>   1.6695  1.0000</r>
       <r>   2.6986  1.0000</r>
       <r>   2.8936  1.0000</r>
       <r>   2.8936  1.0000</r>
       <r>   3.1608  1.0000</r>
       <r>   3.1608  1.0000</r>
       <r>   3.7366  1.0000</r>
       <r>   9.0846  0.0000</r>
       <r>  10.1532  0.0000</r>
       <r>  10.1532  0.0000</r>
       <r>  14.8910  0.0000</r>
       <r>  15.4259  0.0000</r>
       <r>  16.0216  0.0000</r>
       <r>  18.5299  0.0000</r>
       <r>  18.8340  0.0000</r>
       <r>  18.8340  0.0000</r>
       <r>  22.0038  0.0000</r>
       <r>  24.0804  0.0000</r>
       <r>  24.6700  0.0000</r>
       <r>  24.6700  0.0000</r>
       <r>  24.9541  0.0000</r>
       <r>  27.0775  0.0000</r>
       <r>  27.0775  0.0000</r>
       <r>  28.1653  0.0000</r>
       <r>  29.6586  0.0000</r>
       <r>  29.6586  0.0000</r>
       <r>  30.0187  0.0000</r>
       <r>  32.4479  0.0000</r>
       <r>  36.1363  0.0000</r>
       <r>  36.1363  0.0000</r>
       <r>  36.2693  0.0000</r>
       <r>  36.7803  0.0000</r>
       <r>  39.5281  0.0000</r>
       <r>  39.7102  0.0000</r>
       <r>  39.7102  0.0000</r>
       <r>  41.2066  0.0000</r>
       <r>  41.7933  0.0000</r>
       <r>  42.1179  0.0000</r>
       <r>  42.5741  0.0000</r>
       <r>  42.5741  0.0000</r>
       <r>  44.4322  0.0000</r>
       <r>  45.5539  0.0000</r>
       <r>  46.0455  0.0000</r>
       <r>  46.4661  0.0000</r>
       <r>  47.6023  0.0000</r>
       <r>  47.6023  0.0000</r>
       <r>  47.7417  0.0000</r>
       <r>  48.7951  0.0000</r>
       <r>  48.7951  0.0000</r>
       <r>  49.1461  0.0000</r>
       <r>  49.2876  0.0000</r>
       <r>  49.7970  0.0000</r>
       <r>  50.9370  0.0000</r>
       <r>  50.9370  0.0000</r>
       <r>  52.2986  0.0000</r>
       <r>  53.0657  0.0000</r>
       <r>  53.2061  0.0000</r>
       <r>  54.2572  0.0000</r>
      </set>
      <set comment="kpoint 10">
       <r> -19.8802  1.0000</r>
       <r> -19.8770  1.0000</r>
       <r> -19.8697  1.0000</r>
       <r> -19.8697  1.0000</r>
       <r> -19.8681  1.0000</r>
       <r> -14.2555  1.0000</r>
       <r> -12.7715  1.0000</r>
       <r> -12.7073  1.0000</r>
       <r>  -2.6121  1.0000</r>
       <r>  -1.6799  1.0000</r>
       <r>  -1.6375  1.0000</r>
       <r>  -1.6375  1.0000</r>
       <r>  -1.2778  1.0000</r>
       <r>  -0.0920  1.0000</r>
       <r>  -0.0920  1.0000</r>
       <r>   0.0253  1.0000</r>
       <r>   1.9313  1.0000</r>
       <r>   2.6552  1.0000</r>
       <r>   2.8776  1.0000</r>
       <r>   2.8776  1.0000</r>
       <r>   3.1680  1.0000</r>
       <r>   3.1680  1.0000</r>
       <r>   3.8326  1.0000</r>
       <r>   8.8055  0.0000</r>
       <r>  10.0621  0.0000</r>
       <r>  10.0621  0.0000</r>
       <r>  15.0581  0.0000</r>
       <r>  15.6333  0.0000</r>
       <r>  16.3574  0.0000</r>
       <r>  18.6296  0.0000</r>
       <r>  18.9705  0.0000</r>
       <r>  18.9705  0.0000</r>
       <r>  21.9371  0.0000</r>
       <r>  23.7002  0.0000</r>
       <r>  24.6953  0.0000</r>
       <r>  24.6953  0.0000</r>
       <r>  25.0978  0.0000</r>
       <r>  27.0898  0.0000</r>
       <r>  27.0898  0.0000</r>
       <r>  27.8951  0.0000</r>
       <r>  29.4042  0.0000</r>
       <r>  29.7369  0.0000</r>
       <r>  29.7369  0.0000</r>
       <r>  33.0818  0.0000</r>
       <r>  36.2864  0.0000</r>
       <r>  36.3748  0.0000</r>
       <r>  36.4187  0.0000</r>
       <r>  36.4187  0.0000</r>
       <r>  39.0563  0.0000</r>
       <r>  39.0563  0.0000</r>
       <r>  39.6015  0.0000</r>
       <r>  40.9400  0.0000</r>
       <r>  41.8549  0.0000</r>
       <r>  42.2010  0.0000</r>
       <r>  42.4082  0.0000</r>
       <r>  42.4082  0.0000</r>
       <r>  44.7974  0.0000</r>
       <r>  45.5052  0.0000</r>
       <r>  46.0887  0.0000</r>
       <r>  46.5207  0.0000</r>
       <r>  47.7985  0.0000</r>
       <r>  47.7985  0.0000</r>
       <r>  47.9354  0.0000</r>
       <r>  48.3793  0.0000</r>
       <r>  48.3880  0.0000</r>
       <r>  48.3880  0.0000</r>
       <r>  49.5071  0.0000</r>
       <r>  50.3192  0.0000</r>
       <r>  50.8460  0.0000</r>
       <r>  50.8461  0.0000</r>
       <r>  52.1646  0.0000</r>
       <r>  53.1754  0.0000</r>
       <r>  53.2454  0.0000</r>
       <r>  54.0986  0.0000</r>
      </set>
      <set comment="kpoint 11">
       <r> -19.8799  1.0000</r>
       <r> -19.8762  1.0000</r>
       <r> -19.8700  1.0000</r>
       <r> -19.8700  1.0000</r>
       <r> -19.8681  1.0000</r>
       <r> -14.2032  1.0000</r>
       <r> -12.7862  1.0000</r>
       <r> -12.7048  1.0000</r>
       <r>  -2.7507  1.0000</r>
       <r>  -1.8443  1.0000</r>
       <r>  -1.6822  1.0000</r>
       <r>  -1.6822  1.0000</r>
       <r>  -1.2771  1.0000</r>
       <r>  -0.0201  1.0000</r>
       <r>  -0.0201  1.0000</r>
       <r>   0.0257  1.0000</r>
       <r>   2.1920  1.0000</r>
       <r>   2.6118  1.0000</r>
       <r>   2.8574  1.0000</r>
       <r>   2.8574  1.0000</r>
       <r>   3.1780  1.0000</r>
       <r>   3.1780  1.0000</r>
       <r>   3.9229  1.0000</r>
       <r>   8.5269  0.0000</r>
       <r>   9.9725  0.0000</r>
       <r>   9.9725  0.0000</r>
       <r>  15.2316  0.0000</r>
       <r>  15.8516  0.0000</r>
       <r>  16.7048  0.0000</r>
       <r>  18.7403  0.0000</r>
       <r>  19.1054  0.0000</r>
       <r>  19.1054  0.0000</r>
       <r>  21.8500  0.0000</r>
       <r>  23.3349  0.0000</r>
       <r>  24.7201  0.0000</r>
       <r>  24.7201  0.0000</r>
       <r>  25.2321  0.0000</r>
       <r>  27.1070  0.0000</r>
       <r>  27.1070  0.0000</r>
       <r>  27.6208  0.0000</r>
       <r>  28.8561  0.0000</r>
       <r>  29.8334  0.0000</r>
       <r>  29.8334  0.0000</r>
       <r>  33.7311  0.0000</r>
       <r>  35.7319  0.0000</r>
       <r>  36.4928  0.0000</r>
       <r>  36.7014  0.0000</r>
       <r>  36.7014  0.0000</r>
       <r>  38.4391  0.0000</r>
       <r>  38.4391  0.0000</r>
       <r>  39.7199  0.0000</r>
       <r>  40.6390  0.0000</r>
       <r>  41.9063  0.0000</r>
       <r>  42.2616  0.0000</r>
       <r>  42.2616  0.0000</r>
       <r>  42.3328  0.0000</r>
       <r>  45.1213  0.0000</r>
       <r>  45.4366  0.0000</r>
       <r>  46.1171  0.0000</r>
       <r>  46.5779  0.0000</r>
       <r>  47.5075  0.0000</r>
       <r>  47.5075  0.0000</r>
       <r>  47.6120  0.0000</r>
       <r>  47.8695  0.0000</r>
       <r>  48.3837  0.0000</r>
       <r>  48.3837  0.0000</r>
       <r>  50.0621  0.0000</r>
       <r>  50.7888  0.0000</r>
       <r>  50.7889  0.0000</r>
       <r>  50.7963  0.0000</r>
       <r>  52.1384  0.0000</r>
       <r>  53.1072  0.0000</r>
       <r>  53.2186  0.0000</r>
       <r>  53.7127  0.0000</r>
      </set>
      <set comment="kpoint 12">
       <r> -19.8797  1.0000</r>
       <r> -19.8754  1.0000</r>
       <r> -19.8703  1.0000</r>
       <r> -19.8703  1.0000</r>
       <r> -19.8681  1.0000</r>
       <r> -14.1491  1.0000</r>
       <r> -12.8030  1.0000</r>
       <r> -12.7024  1.0000</r>
       <r>  -2.8744  1.0000</r>
       <r>  -2.0033  1.0000</r>
       <r>  -1.7235  1.0000</r>
       <r>  -1.7235  1.0000</r>
       <r>  -1.2764  1.0000</r>
       <r>   0.0261  1.0000</r>
       <r>   0.0494  1.0000</r>
       <r>   0.0494  1.0000</r>
       <r>   2.4496  1.0000</r>
       <r>   2.5695  1.0000</r>
       <r>   2.8339  1.0000</r>
       <r>   2.8339  1.0000</r>
       <r>   3.1900  1.0000</r>
       <r>   3.1900  1.0000</r>
       <r>   4.0054  1.0000</r>
       <r>   8.2523  0.0000</r>
       <r>   9.8864  0.0000</r>
       <r>   9.8864  0.0000</r>
       <r>  15.4074  0.0000</r>
       <r>  16.0789  0.0000</r>
       <r>  17.0572  0.0000</r>
       <r>  18.8617  0.0000</r>
       <r>  19.2350  0.0000</r>
       <r>  19.2350  0.0000</r>
       <r>  21.7500  0.0000</r>
       <r>  22.9850  0.0000</r>
       <r>  24.7435  0.0000</r>
       <r>  24.7435  0.0000</r>
       <r>  25.3124  0.0000</r>
       <r>  27.1285  0.0000</r>
       <r>  27.1285  0.0000</r>
       <r>  27.3489  0.0000</r>
       <r>  28.4189  0.0000</r>
       <r>  29.9504  0.0000</r>
       <r>  29.9504  0.0000</r>
       <r>  34.3953  0.0000</r>
       <r>  35.1452  0.0000</r>
       <r>  36.6230  0.0000</r>
       <r>  36.9044  0.0000</r>
       <r>  36.9044  0.0000</r>
       <r>  37.9430  0.0000</r>
       <r>  37.9430  0.0000</r>
       <r>  39.8630  0.0000</r>
       <r>  40.3294  0.0000</r>
       <r>  41.9411  0.0000</r>
       <r>  42.1322  0.0000</r>
       <r>  42.1322  0.0000</r>
       <r>  42.4879  0.0000</r>
       <r>  45.3462  0.0000</r>
       <r>  45.3913  0.0000</r>
       <r>  46.0720  0.0000</r>
       <r>  46.6363  0.0000</r>
       <r>  46.9084  0.0000</r>
       <r>  46.9151  0.0000</r>
       <r>  46.9151  0.0000</r>
       <r>  47.7367  0.0000</r>
       <r>  48.6423  0.0000</r>
       <r>  48.6423  0.0000</r>
       <r>  50.7525  0.0000</r>
       <r>  50.7525  0.0000</r>
       <r>  50.7596  0.0000</r>
       <r>  51.1494  0.0000</r>
       <r>  52.2911  0.0000</r>
       <r>  52.9056  0.0000</r>
       <r>  52.9230  0.0000</r>
       <r>  53.1522  0.0000</r>
      </set>
      <set comment="kpoint 13">
       <r> -19.8795  1.0000</r>
       <r> -19.8746  1.0000</r>
       <r> -19.8705  1.0000</r>
       <r> -19.8705  1.0000</r>
       <r> -19.8681  1.0000</r>
       <r> -14.0946  1.0000</r>
       <r> -12.8216  1.0000</r>
       <r> -12.7001  1.0000</r>
       <r>  -2.9824  1.0000</r>
       <r>  -2.1536  1.0000</r>
       <r>  -1.7609  1.0000</r>
       <r>  -1.7609  1.0000</r>
       <r>  -1.2758  1.0000</r>
       <r>   0.0264  1.0000</r>
       <r>   0.1153  1.0000</r>
       <r>   0.1153  1.0000</r>
       <r>   2.5295  1.0000</r>
       <r>   2.7019  1.0000</r>
       <r>   2.8085  1.0000</r>
       <r>   2.8085  1.0000</r>
       <r>   3.2028  1.0000</r>
       <r>   3.2028  1.0000</r>
       <r>   4.0783  1.0000</r>
       <r>   7.9854  0.0000</r>
       <r>   9.8060  0.0000</r>
       <r>   9.8060  0.0000</r>
       <r>  15.5807  0.0000</r>
       <r>  16.3123  0.0000</r>
       <r>  17.4066  0.0000</r>
       <r>  18.9931  0.0000</r>
       <r>  19.3561  0.0000</r>
       <r>  19.3561  0.0000</r>
       <r>  21.6474  0.0000</r>
       <r>  22.6517  0.0000</r>
       <r>  24.7647  0.0000</r>
       <r>  24.7647  0.0000</r>
       <r>  25.2753  0.0000</r>
       <r>  27.0862  0.0000</r>
       <r>  27.1532  0.0000</r>
       <r>  27.1532  0.0000</r>
       <r>  28.1551  0.0000</r>
       <r>  30.0898  0.0000</r>
       <r>  30.0898  0.0000</r>
       <r>  34.5421  0.0000</r>
       <r>  35.0738  0.0000</r>
       <r>  36.7581  0.0000</r>
       <r>  36.7581  0.0000</r>
       <r>  36.7656  0.0000</r>
       <r>  37.8411  0.0000</r>
       <r>  37.8411  0.0000</r>
       <r>  40.0211  0.0000</r>
       <r>  40.0213  0.0000</r>
       <r>  41.9536  0.0000</r>
       <r>  42.0188  0.0000</r>
       <r>  42.0188  0.0000</r>
       <r>  42.6567  0.0000</r>
       <r>  45.2331  0.0000</r>
       <r>  45.5987  0.0000</r>
       <r>  45.6924  0.0000</r>
       <r>  46.2805  0.0000</r>
       <r>  46.2805  0.0000</r>
       <r>  46.5337  0.0000</r>
       <r>  46.6943  0.0000</r>
       <r>  47.6275  0.0000</r>
       <r>  48.9268  0.0000</r>
       <r>  48.9268  0.0000</r>
       <r>  50.7329  0.0000</r>
       <r>  50.7329  0.0000</r>
       <r>  51.3276  0.0000</r>
       <r>  51.4996  0.0000</r>
       <r>  52.6717  0.0000</r>
       <r>  52.6788  0.0000</r>
       <r>  52.6996  0.0000</r>
       <r>  52.7968  0.0000</r>
      </set>
      <set comment="kpoint 14">
       <r> -19.8793  1.0000</r>
       <r> -19.8740  1.0000</r>
       <r> -19.8708  1.0000</r>
       <r> -19.8708  1.0000</r>
       <r> -19.8681  1.0000</r>
       <r> -14.0411  1.0000</r>
       <r> -12.8416  1.0000</r>
       <r> -12.6980  1.0000</r>
       <r>  -3.0742  1.0000</r>
       <r>  -2.2926  1.0000</r>
       <r>  -1.7941  1.0000</r>
       <r>  -1.7941  1.0000</r>
       <r>  -1.2752  1.0000</r>
       <r>   0.0268  1.0000</r>
       <r>   0.1763  1.0000</r>
       <r>   0.1763  1.0000</r>
       <r>   2.4926  1.0000</r>
       <r>   2.7824  1.0000</r>
       <r>   2.7824  1.0000</r>
       <r>   2.9463  1.0000</r>
       <r>   3.2158  1.0000</r>
       <r>   3.2158  1.0000</r>
       <r>   4.1397  1.0000</r>
       <r>   7.7303  0.0000</r>
       <r>   9.7330  0.0000</r>
       <r>   9.7330  0.0000</r>
       <r>  15.7465  0.0000</r>
       <r>  16.5475  0.0000</r>
       <r>  17.7426  0.0000</r>
       <r>  19.1333  0.0000</r>
       <r>  19.4659  0.0000</r>
       <r>  19.4659  0.0000</r>
       <r>  21.5565  0.0000</r>
       <r>  22.3362  0.0000</r>
       <r>  24.7833  0.0000</r>
       <r>  24.7833  0.0000</r>
       <r>  25.0753  0.0000</r>
       <r>  26.8397  0.0000</r>
       <r>  27.1793  0.0000</r>
       <r>  27.1793  0.0000</r>
       <r>  28.1093  0.0000</r>
       <r>  30.2520  0.0000</r>
       <r>  30.2520  0.0000</r>
       <r>  33.9321  0.0000</r>
       <r>  35.7661  0.0000</r>
       <r>  36.2961  0.0000</r>
       <r>  36.2961  0.0000</r>
       <r>  36.9206  0.0000</r>
       <r>  38.1015  0.0000</r>
       <r>  38.1015  0.0000</r>
       <r>  39.7187  0.0000</r>
       <r>  40.1898  0.0000</r>
       <r>  41.9209  0.0000</r>
       <r>  41.9209  0.0000</r>
       <r>  41.9391  0.0000</r>
       <r>  42.8345  0.0000</r>
       <r>  44.9797  0.0000</r>
       <r>  45.0992  0.0000</r>
       <r>  45.6463  0.0000</r>
       <r>  45.6463  0.0000</r>
       <r>  45.7398  0.0000</r>
       <r>  46.4887  0.0000</r>
       <r>  46.7502  0.0000</r>
       <r>  47.5702  0.0000</r>
       <r>  49.2045  0.0000</r>
       <r>  49.2045  0.0000</r>
       <r>  50.7287  0.0000</r>
       <r>  50.7287  0.0000</r>
       <r>  51.4031  0.0000</r>
       <r>  52.2229  0.0000</r>
       <r>  52.4520  0.0000</r>
       <r>  52.4614  0.0000</r>
       <r>  52.5191  0.0000</r>
       <r>  53.1986  0.0000</r>
      </set>
      <set comment="kpoint 15">
       <r> -19.8791  1.0000</r>
       <r> -19.8734  1.0000</r>
       <r> -19.8710  1.0000</r>
       <r> -19.8710  1.0000</r>
       <r> -19.8681  1.0000</r>
       <r> -13.9904  1.0000</r>
       <r> -12.8622  1.0000</r>
       <r> -12.6961  1.0000</r>
       <r>  -3.1495  1.0000</r>
       <r>  -2.4173  1.0000</r>
       <r>  -1.8227  1.0000</r>
       <r>  -1.8227  1.0000</r>
       <r>  -1.2747  1.0000</r>
       <r>   0.0271  1.0000</r>
       <r>   0.2311  1.0000</r>
       <r>   0.2311  1.0000</r>
       <r>   2.4599  1.0000</r>
       <r>   2.7572  1.0000</r>
       <r>   2.7572  1.0000</r>
       <r>   3.1795  1.0000</r>
       <r>   3.2280  1.0000</r>
       <r>   3.2280  1.0000</r>
       <r>   4.1878  1.0000</r>
       <r>   7.4919  0.0000</r>
       <r>   9.6688  0.0000</r>
       <r>   9.6688  0.0000</r>
       <r>  15.8997  0.0000</r>
       <r>  16.7788  0.0000</r>
       <r>  18.0507  0.0000</r>
       <r>  19.2803  0.0000</r>
       <r>  19.5623  0.0000</r>
       <r>  19.5623  0.0000</r>
       <r>  21.4961  0.0000</r>
       <r>  22.0407  0.0000</r>
       <r>  24.7310  0.0000</r>
       <r>  24.7988  0.0000</r>
       <r>  24.7988  0.0000</r>
       <r>  26.6160  0.0000</r>
       <r>  27.2049  0.0000</r>
       <r>  27.2049  0.0000</r>
       <r>  28.2624  0.0000</r>
       <r>  30.4351  0.0000</r>
       <r>  30.4351  0.0000</r>
       <r>  33.3214  0.0000</r>
       <r>  35.7811  0.0000</r>
       <r>  35.7811  0.0000</r>
       <r>  36.4718  0.0000</r>
       <r>  37.0878  0.0000</r>
       <r>  38.4635  0.0000</r>
       <r>  38.4635  0.0000</r>
       <r>  39.4245  0.0000</r>
       <r>  40.3652  0.0000</r>
       <r>  41.8382  0.0000</r>
       <r>  41.8382  0.0000</r>
       <r>  41.8946  0.0000</r>
       <r>  43.0189  0.0000</r>
       <r>  44.1945  0.0000</r>
       <r>  44.9470  0.0000</r>
       <r>  45.0302  0.0000</r>
       <r>  45.0302  0.0000</r>
       <r>  45.8217  0.0000</r>
       <r>  46.5147  0.0000</r>
       <r>  46.8021  0.0000</r>
       <r>  47.5644  0.0000</r>
       <r>  49.4631  0.0000</r>
       <r>  49.4631  0.0000</r>
       <r>  50.7389  0.0000</r>
       <r>  50.7389  0.0000</r>
       <r>  51.4461  0.0000</r>
       <r>  52.2383  0.0000</r>
       <r>  52.2393  0.0000</r>
       <r>  52.2695  0.0000</r>
       <r>  52.8798  0.0000</r>
       <r>  53.7952  0.0000</r>
      </set>
      <set comment="kpoint 16">
       <r> -19.8790  1.0000</r>
       <r> -19.8729  1.0000</r>
       <r> -19.8712  1.0000</r>
       <r> -19.8712  1.0000</r>
       <r> -19.8681  1.0000</r>
       <r> -13.9444  1.0000</r>
       <r> -12.8823  1.0000</r>
       <r> -12.6945  1.0000</r>
       <r>  -3.2088  1.0000</r>
       <r>  -2.5250  1.0000</r>
       <r>  -1.8465  1.0000</r>
       <r>  -1.8465  1.0000</r>
       <r>  -1.2742  1.0000</r>
       <r>   0.0274  1.0000</r>
       <r>   0.2784  1.0000</r>
       <r>   0.2784  1.0000</r>
       <r>   2.4322  1.0000</r>
       <r>   2.7340  1.0000</r>
       <r>   2.7340  1.0000</r>
       <r>   3.2389  1.0000</r>
       <r>   3.2389  1.0000</r>
       <r>   3.3968  1.0000</r>
       <r>   4.2209  1.0000</r>
       <r>   7.2766  0.0000</r>
       <r>   9.6146  0.0000</r>
       <r>   9.6146  0.0000</r>
       <r>  16.0347  0.0000</r>
       <r>  16.9988  0.0000</r>
       <r>  18.3126  0.0000</r>
       <r>  19.4309  0.0000</r>
       <r>  19.6434  0.0000</r>
       <r>  19.6434  0.0000</r>
       <r>  21.4891  0.0000</r>
       <r>  21.7684  0.0000</r>
       <r>  24.3015  0.0000</r>
       <r>  24.8113  0.0000</r>
       <r>  24.8113  0.0000</r>
       <r>  26.4216  0.0000</r>
       <r>  27.2285  0.0000</r>
       <r>  27.2285  0.0000</r>
       <r>  28.5566  0.0000</r>
       <r>  30.6333  0.0000</r>
       <r>  30.6333  0.0000</r>
       <r>  32.7153  0.0000</r>
       <r>  35.2891  0.0000</r>
       <r>  35.2891  0.0000</r>
       <r>  37.1900  0.0000</r>
       <r>  37.2673  0.0000</r>
       <r>  38.8519  0.0000</r>
       <r>  38.8519  0.0000</r>
       <r>  39.1399  0.0000</r>
       <r>  40.5460  0.0000</r>
       <r>  41.7706  0.0000</r>
       <r>  41.7706  0.0000</r>
       <r>  41.8195  0.0000</r>
       <r>  43.2083  0.0000</r>
       <r>  43.3963  0.0000</r>
       <r>  44.4468  0.0000</r>
       <r>  44.4468  0.0000</r>
       <r>  44.7804  0.0000</r>
       <r>  45.8623  0.0000</r>
       <r>  46.5528  0.0000</r>
       <r>  46.8480  0.0000</r>
       <r>  47.5958  0.0000</r>
       <r>  49.6935  0.0000</r>
       <r>  49.6935  0.0000</r>
       <r>  50.7623  0.0000</r>
       <r>  50.7623  0.0000</r>
       <r>  51.4804  0.0000</r>
       <r>  52.0439  0.0000</r>
       <r>  52.0442  0.0000</r>
       <r>  52.0691  0.0000</r>
       <r>  53.3089  0.0000</r>
       <r>  53.5534  0.0000</r>
      </set>
      <set comment="kpoint 17">
       <r> -19.8788  1.0000</r>
       <r> -19.8724  1.0000</r>
       <r> -19.8713  1.0000</r>
       <r> -19.8713  1.0000</r>
       <r> -19.8681  1.0000</r>
       <r> -13.9052  1.0000</r>
       <r> -12.9005  1.0000</r>
       <r> -12.6931  1.0000</r>
       <r>  -3.2527  1.0000</r>
       <r>  -2.6129  1.0000</r>
       <r>  -1.8652  1.0000</r>
       <r>  -1.8652  1.0000</r>
       <r>  -1.2738  1.0000</r>
       <r>   0.0276  1.0000</r>
       <r>   0.3168  1.0000</r>
       <r>   0.3168  1.0000</r>
       <r>   2.4099  1.0000</r>
       <r>   2.7144  1.0000</r>
       <r>   2.7144  1.0000</r>
       <r>   3.2478  1.0000</r>
       <r>   3.2478  1.0000</r>
       <r>   3.5921  1.0000</r>
       <r>   4.2371  1.0000</r>
       <r>   7.0925  0.0000</r>
       <r>   9.5715  0.0000</r>
       <r>   9.5715  0.0000</r>
       <r>  16.1464  0.0000</r>
       <r>  17.1971  0.0000</r>
       <r>  18.5103  0.0000</r>
       <r>  19.5789  0.0000</r>
       <r>  19.7078  0.0000</r>
       <r>  19.7078  0.0000</r>
       <r>  21.5258  0.0000</r>
       <r>  21.5576  0.0000</r>
       <r>  23.8399  0.0000</r>
       <r>  24.8208  0.0000</r>
       <r>  24.8208  0.0000</r>
       <r>  26.2629  0.0000</r>
       <r>  27.2483  0.0000</r>
       <r>  27.2483  0.0000</r>
       <r>  28.9425  0.0000</r>
       <r>  30.8350  0.0000</r>
       <r>  30.8350  0.0000</r>
       <r>  32.1178  0.0000</r>
       <r>  34.8505  0.0000</r>
       <r>  34.8505  0.0000</r>
       <r>  37.4590  0.0000</r>
       <r>  37.9194  0.0000</r>
       <r>  38.8659  0.0000</r>
       <r>  39.2354  0.0000</r>
       <r>  39.2354  0.0000</r>
       <r>  40.7302  0.0000</r>
       <r>  41.7159  0.0000</r>
       <r>  41.7181  0.0000</r>
       <r>  41.7181  0.0000</r>
       <r>  42.5995  0.0000</r>
       <r>  43.4008  0.0000</r>
       <r>  43.9150  0.0000</r>
       <r>  43.9150  0.0000</r>
       <r>  44.6030  0.0000</r>
       <r>  45.8790  0.0000</r>
       <r>  46.5893  0.0000</r>
       <r>  46.8861  0.0000</r>
       <r>  47.6440  0.0000</r>
       <r>  49.8862  0.0000</r>
       <r>  49.8862  0.0000</r>
       <r>  50.7958  0.0000</r>
       <r>  50.7958  0.0000</r>
       <r>  51.5107  0.0000</r>
       <r>  51.8749  0.0000</r>
       <r>  51.8749  0.0000</r>
       <r>  51.9113  0.0000</r>
       <r>  53.3792  0.0000</r>
       <r>  53.5571  0.0000</r>
      </set>
      <set comment="kpoint 18">
       <r> -19.8787  1.0000</r>
       <r> -19.8720  1.0000</r>
       <r> -19.8714  1.0000</r>
       <r> -19.8714  1.0000</r>
       <r> -19.8679  1.0000</r>
       <r> -13.8750  1.0000</r>
       <r> -12.9152  1.0000</r>
       <r> -12.6921  1.0000</r>
       <r>  -3.2826  1.0000</r>
       <r>  -2.6784  1.0000</r>
       <r>  -1.8786  1.0000</r>
       <r>  -1.8786  1.0000</r>
       <r>  -1.2735  1.0000</r>
       <r>   0.0278  1.0000</r>
       <r>   0.3452  1.0000</r>
       <r>   0.3452  1.0000</r>
       <r>   2.3936  1.0000</r>
       <r>   2.6994  1.0000</r>
       <r>   2.6994  1.0000</r>
       <r>   3.2546  1.0000</r>
       <r>   3.2546  1.0000</r>
       <r>   3.7566  1.0000</r>
       <r>   4.2352  1.0000</r>
       <r>   6.9494  0.0000</r>
       <r>   9.5402  0.0000</r>
       <r>   9.5402  0.0000</r>
       <r>  16.2301  0.0000</r>
       <r>  17.3597  0.0000</r>
       <r>  18.6356  0.0000</r>
       <r>  19.7129  0.0000</r>
       <r>  19.7544  0.0000</r>
       <r>  19.7544  0.0000</r>
       <r>  21.3242  0.0000</r>
       <r>  21.7115  0.0000</r>
       <r>  23.3865  0.0000</r>
       <r>  24.8274  0.0000</r>
       <r>  24.8274  0.0000</r>
       <r>  26.1451  0.0000</r>
       <r>  27.2633  0.0000</r>
       <r>  27.2633  0.0000</r>
       <r>  29.3892  0.0000</r>
       <r>  31.0194  0.0000</r>
       <r>  31.0194  0.0000</r>
       <r>  31.5329  0.0000</r>
       <r>  34.4936  0.0000</r>
       <r>  34.4936  0.0000</r>
       <r>  37.6626  0.0000</r>
       <r>  38.6032  0.0000</r>
       <r>  38.6567  0.0000</r>
       <r>  39.5804  0.0000</r>
       <r>  39.5804  0.0000</r>
       <r>  40.9145  0.0000</r>
       <r>  41.5868  0.0000</r>
       <r>  41.6806  0.0000</r>
       <r>  41.6806  0.0000</r>
       <r>  41.8122  0.0000</r>
       <r>  43.4650  0.0000</r>
       <r>  43.4650  0.0000</r>
       <r>  43.5935  0.0000</r>
       <r>  44.4188  0.0000</r>
       <r>  45.8846  0.0000</r>
       <r>  46.6186  0.0000</r>
       <r>  46.9146  0.0000</r>
       <r>  47.6897  0.0000</r>
       <r>  50.0330  0.0000</r>
       <r>  50.0330  0.0000</r>
       <r>  50.8335  0.0000</r>
       <r>  50.8335  0.0000</r>
       <r>  51.5350  0.0000</r>
       <r>  51.7390  0.0000</r>
       <r>  51.7392  0.0000</r>
       <r>  51.7977  0.0000</r>
       <r>  53.2880  0.0000</r>
       <r>  53.5663  0.0000</r>
      </set>
      <set comment="kpoint 19">
       <r> -19.8787  1.0000</r>
       <r> -19.8718  1.0000</r>
       <r> -19.8714  1.0000</r>
       <r> -19.8714  1.0000</r>
       <r> -19.8679  1.0000</r>
       <r> -13.8560  1.0000</r>
       <r> -12.9248  1.0000</r>
       <r> -12.6915  1.0000</r>
       <r>  -3.2998  1.0000</r>
       <r>  -2.7189  1.0000</r>
       <r>  -1.8867  1.0000</r>
       <r>  -1.8867  1.0000</r>
       <r>  -1.2734  1.0000</r>
       <r>   0.0279  1.0000</r>
       <r>   0.3626  1.0000</r>
       <r>   0.3626  1.0000</r>
       <r>   2.3837  1.0000</r>
       <r>   2.6900  1.0000</r>
       <r>   2.6900  1.0000</r>
       <r>   3.2587  1.0000</r>
       <r>   3.2587  1.0000</r>
       <r>   3.8758  1.0000</r>
       <r>   4.2193  1.0000</r>
       <r>   6.8578  0.0000</r>
       <r>   9.5212  0.0000</r>
       <r>   9.5212  0.0000</r>
       <r>  16.2819  0.0000</r>
       <r>  17.4690  0.0000</r>
       <r>  18.6975  0.0000</r>
       <r>  19.7827  0.0000</r>
       <r>  19.7827  0.0000</r>
       <r>  19.8125  0.0000</r>
       <r>  21.1839  0.0000</r>
       <r>  21.9249  0.0000</r>
       <r>  22.9902  0.0000</r>
       <r>  24.8313  0.0000</r>
       <r>  24.8313  0.0000</r>
       <r>  26.0726  0.0000</r>
       <r>  27.2726  0.0000</r>
       <r>  27.2726  0.0000</r>
       <r>  29.8773  0.0000</r>
       <r>  30.9663  0.0000</r>
       <r>  31.1547  0.0000</r>
       <r>  31.1547  0.0000</r>
       <r>  34.2536  0.0000</r>
       <r>  34.2536  0.0000</r>
       <r>  37.8772  0.0000</r>
       <r>  38.3530  0.0000</r>
       <r>  39.3882  0.0000</r>
       <r>  39.8350  0.0000</r>
       <r>  39.8350  0.0000</r>
       <r>  41.0498  0.0000</r>
       <r>  41.0963  0.0000</r>
       <r>  41.4371  0.0000</r>
       <r>  41.6582  0.0000</r>
       <r>  41.6582  0.0000</r>
       <r>  43.1476  0.0000</r>
       <r>  43.1476  0.0000</r>
       <r>  43.7789  0.0000</r>
       <r>  44.2377  0.0000</r>
       <r>  45.8860  0.0000</r>
       <r>  46.6373  0.0000</r>
       <r>  46.9324  0.0000</r>
       <r>  47.7213  0.0000</r>
       <r>  50.1246  0.0000</r>
       <r>  50.1246  0.0000</r>
       <r>  50.8654  0.0000</r>
       <r>  50.8654  0.0000</r>
       <r>  51.5510  0.0000</r>
       <r>  51.6475  0.0000</r>
       <r>  51.6476  0.0000</r>
       <r>  51.7287  0.0000</r>
       <r>  53.2299  0.0000</r>
       <r>  53.5537  0.0000</r>
      </set>
      <set comment="kpoint 20">
       <r> -19.8786  1.0000</r>
       <r> -19.8717  1.0000</r>
       <r> -19.8714  1.0000</r>
       <r> -19.8714  1.0000</r>
       <r> -19.8679  1.0000</r>
       <r> -13.8494  1.0000</r>
       <r> -12.9281  1.0000</r>
       <r> -12.6913  1.0000</r>
       <r>  -3.3053  1.0000</r>
       <r>  -2.7326  1.0000</r>
       <r>  -1.8895  1.0000</r>
       <r>  -1.8895  1.0000</r>
       <r>  -1.2733  1.0000</r>
       <r>   0.0279  1.0000</r>
       <r>   0.3685  1.0000</r>
       <r>   0.3685  1.0000</r>
       <r>   2.3804  1.0000</r>
       <r>   2.6868  1.0000</r>
       <r>   2.6868  1.0000</r>
       <r>   3.2601  1.0000</r>
       <r>   3.2601  1.0000</r>
       <r>   3.9228  1.0000</r>
       <r>   4.2079  1.0000</r>
       <r>   6.8261  0.0000</r>
       <r>   9.5149  0.0000</r>
       <r>   9.5149  0.0000</r>
       <r>  16.2995  0.0000</r>
       <r>  17.5080  0.0000</r>
       <r>  18.7149  0.0000</r>
       <r>  19.7921  0.0000</r>
       <r>  19.7921  0.0000</r>
       <r>  19.8507  0.0000</r>
       <r>  21.1323  0.0000</r>
       <r>  22.0613  0.0000</r>
       <r>  22.7929  0.0000</r>
       <r>  24.8325  0.0000</r>
       <r>  24.8325  0.0000</r>
       <r>  26.0481  0.0000</r>
       <r>  27.2758  0.0000</r>
       <r>  27.2758  0.0000</r>
       <r>  30.3203  0.0000</r>
       <r>  30.4978  0.0000</r>
       <r>  31.2055  0.0000</r>
       <r>  31.2055  0.0000</r>
       <r>  34.1677  0.0000</r>
       <r>  34.1677  0.0000</r>
       <r>  38.0682  0.0000</r>
       <r>  38.1501  0.0000</r>
       <r>  39.9149  0.0000</r>
       <r>  39.9322  0.0000</r>
       <r>  39.9322  0.0000</r>
       <r>  40.5128  0.0000</r>
       <r>  41.2698  0.0000</r>
       <r>  41.2741  0.0000</r>
       <r>  41.6508  0.0000</r>
       <r>  41.6508  0.0000</r>
       <r>  43.0297  0.0000</r>
       <r>  43.0297  0.0000</r>
       <r>  43.8953  0.0000</r>
       <r>  44.1226  0.0000</r>
       <r>  45.8865  0.0000</r>
       <r>  46.6438  0.0000</r>
       <r>  46.9384  0.0000</r>
       <r>  47.7328  0.0000</r>
       <r>  50.1562  0.0000</r>
       <r>  50.1562  0.0000</r>
       <r>  50.8784  0.0000</r>
       <r>  50.8784  0.0000</r>
       <r>  51.5567  0.0000</r>
       <r>  51.6146  0.0000</r>
       <r>  51.6147  0.0000</r>
       <r>  51.7058  0.0000</r>
       <r>  53.2116  0.0000</r>
       <r>  53.5615  0.0000</r>
      </set>
      <set comment="kpoint 21">
       <r> -19.8786  1.0000</r>
       <r> -19.8717  1.0000</r>
       <r> -19.8714  1.0000</r>
       <r> -19.8714  1.0000</r>
       <r> -19.8679  1.0000</r>
       <r> -13.8494  1.0000</r>
       <r> -12.9281  1.0000</r>
       <r> -12.6913  1.0000</r>
       <r>  -3.3053  1.0000</r>
       <r>  -2.7326  1.0000</r>
       <r>  -1.8895  1.0000</r>
       <r>  -1.8895  1.0000</r>
       <r>  -1.2733  1.0000</r>
       <r>   0.0279  1.0000</r>
       <r>   0.3685  1.0000</r>
       <r>   0.3685  1.0000</r>
       <r>   2.3804  1.0000</r>
       <r>   2.6868  1.0000</r>
       <r>   2.6868  1.0000</r>
       <r>   3.2601  1.0000</r>
       <r>   3.2601  1.0000</r>
       <r>   3.9228  1.0000</r>
       <r>   4.2079  1.0000</r>
       <r>   6.8261  0.0000</r>
       <r>   9.5149  0.0000</r>
       <r>   9.5149  0.0000</r>
       <r>  16.2995  0.0000</r>
       <r>  17.5080  0.0000</r>
       <r>  18.7149  0.0000</r>
       <r>  19.7921  0.0000</r>
       <r>  19.7921  0.0000</r>
       <r>  19.8507  0.0000</r>
       <r>  21.1323  0.0000</r>
       <r>  22.0613  0.0000</r>
       <r>  22.7929  0.0000</r>
       <r>  24.8325  0.0000</r>
       <r>  24.8325  0.0000</r>
       <r>  26.0481  0.0000</r>
       <r>  27.2758  0.0000</r>
       <r>  27.2758  0.0000</r>
       <r>  30.3203  0.0000</r>
       <r>  30.4978  0.0000</r>
       <r>  31.2055  0.0000</r>
       <r>  31.2055  0.0000</r>
       <r>  34.1677  0.0000</r>
       <r>  34.1677  0.0000</r>
       <r>  38.0682  0.0000</r>
       <r>  38.1501  0.0000</r>
       <r>  39.9149  0.0000</r>
       <r>  39.9322  0.0000</r>
       <r>  39.9322  0.0000</r>
       <r>  40.5128  0.0000</r>
       <r>  41.2698  0.0000</r>
       <r>  41.2741  0.0000</r>
       <r>  41.6508  0.0000</r>
       <r>  41.6508  0.0000</r>
       <r>  43.0297  0.0000</r>
       <r>  43.0297  0.0000</r>
       <r>  43.8953  0.0000</r>
       <r>  44.1226  0.0000</r>
       <r>  45.8865  0.0000</r>
       <r>  46.6438  0.0000</r>
       <r>  46.9384  0.0000</r>
       <r>  47.7328  0.0000</r>
       <r>  50.1562  0.0000</r>
       <r>  50.1562  0.0000</r>
       <r>  50.8784  0.0000</r>
       <r>  50.8784  0.0000</r>
       <r>  51.5566  0.0000</r>
       <r>  51.6146  0.0000</r>
       <r>  51.6147  0.0000</r>
       <r>  51.7058  0.0000</r>
       <r>  53.2164  0.0000</r>
       <r>  53.5787  0.0000</r>
      </set>
      <set comment="kpoint 22">
       <r> -19.8786  1.0000</r>
       <r> -19.8718  1.0000</r>
       <r> -19.8715  1.0000</r>
       <r> -19.8714  1.0000</r>
       <r> -19.8681  1.0000</r>
       <r> -13.8461  1.0000</r>
       <r> -12.9272  1.0000</r>
       <r> -12.6913  1.0000</r>
       <r>  -3.3053  1.0000</r>
       <r>  -2.7509  1.0000</r>
       <r>  -1.8889  1.0000</r>
       <r>  -1.8732  1.0000</r>
       <r>  -1.2785  1.0000</r>
       <r>  -0.0828  1.0000</r>
       <r>   0.3751  1.0000</r>
       <r>   0.4639  1.0000</r>
       <r>   2.3540  1.0000</r>
       <r>   2.6889  1.0000</r>
       <r>   2.7150  1.0000</r>
       <r>   3.2249  1.0000</r>
       <r>   3.2590  1.0000</r>
       <r>   3.9611  1.0000</r>
       <r>   4.2067  1.0000</r>
       <r>   6.8436  0.0000</r>
       <r>   9.5052  0.0000</r>
       <r>   9.5092  0.0000</r>
       <r>  16.3120  0.0000</r>
       <r>  17.5135  0.0000</r>
       <r>  18.7359  0.0000</r>
       <r>  19.7787  0.0000</r>
       <r>  19.7929  0.0000</r>
       <r>  19.8559  0.0000</r>
       <r>  21.1257  0.0000</r>
       <r>  22.0684  0.0000</r>
       <r>  22.7628  0.0000</r>
       <r>  24.8520  0.0000</r>
       <r>  24.8557  0.0000</r>
       <r>  26.0640  0.0000</r>
       <r>  27.2280  0.0000</r>
       <r>  27.2954  0.0000</r>
       <r>  30.3596  0.0000</r>
       <r>  30.4386  0.0000</r>
       <r>  31.2079  0.0000</r>
       <r>  31.2656  0.0000</r>
       <r>  34.1614  0.0000</r>
       <r>  34.1633  0.0000</r>
       <r>  38.0386  0.0000</r>
       <r>  38.0453  0.0000</r>
       <r>  39.6821  0.0000</r>
       <r>  39.8409  0.0000</r>
       <r>  39.8735  0.0000</r>
       <r>  40.7442  0.0000</r>
       <r>  41.1905  0.0000</r>
       <r>  41.2767  0.0000</r>
       <r>  41.6582  0.0000</r>
       <r>  41.8055  0.0000</r>
       <r>  43.0857  0.0000</r>
       <r>  43.1174  0.0000</r>
       <r>  43.9271  0.0000</r>
       <r>  44.1192  0.0000</r>
       <r>  45.9365  0.0000</r>
       <r>  46.6285  0.0000</r>
       <r>  46.9065  0.0000</r>
       <r>  47.7023  0.0000</r>
       <r>  50.1496  0.0000</r>
       <r>  50.1677  0.0000</r>
       <r>  50.5512  0.0000</r>
       <r>  50.6504  0.0000</r>
       <r>  50.9255  0.0000</r>
       <r>  51.5264  0.0000</r>
       <r>  51.9100  0.0000</r>
       <r>  52.4668  0.0000</r>
       <r>  53.4480  0.0000</r>
       <r>  53.5048  0.0000</r>
      </set>
      <set comment="kpoint 23">
       <r> -19.8785  1.0000</r>
       <r> -19.8717  1.0000</r>
       <r> -19.8717  1.0000</r>
       <r> -19.8715  1.0000</r>
       <r> -19.8682  1.0000</r>
       <r> -13.8360  1.0000</r>
       <r> -12.9246  1.0000</r>
       <r> -12.6914  1.0000</r>
       <r>  -3.3053  1.0000</r>
       <r>  -2.8018  1.0000</r>
       <r>  -1.8873  1.0000</r>
       <r>  -1.8283  1.0000</r>
       <r>  -1.2935  1.0000</r>
       <r>  -0.2896  1.0000</r>
[...]
       <r>  -0.8855  1.0000</r>
       <r>  -0.8855  1.0000</r>
       <r>  -0.0753  1.0000</r>
       <r>   0.1535  1.0000</r>
       <r>   0.4395  1.0000</r>
       <r>   4.0572  1.0000</r>
       <r>   4.0572  1.0000</r>
       <r>   4.6045  0.6712</r>
       <r>   4.9081  0.0000</r>
       <r>   4.9081  0.0000</r>
       <r>   4.9502  0.0000</r>
       <r>   8.7143  0.0000</r>
       <r>   9.5232  0.0000</r>
       <r>  10.1447  0.0000</r>
       <r>  10.1509  0.0000</r>
       <r>  10.1509  0.0000</r>
       <r>  16.2482  0.0000</r>
       <r>  16.7330  0.0000</r>
       <r>  16.7330  0.0000</r>
       <r>  21.0113  0.0000</r>
       <r>  21.3583  0.0000</r>
       <r>  23.8168  0.0000</r>
       <r>  23.8168  0.0000</r>
       <r>  24.3361  0.0000</r>
       <r>  24.7335  0.0000</r>
       <r>  25.2334  0.0000</r>
       <r>  25.2334  0.0000</r>
       <r>  26.1849  0.0000</r>
       <r>  26.8249  0.0000</r>
       <r>  27.9254  0.0000</r>
       <r>  27.9254  0.0000</r>
       <r>  30.5157  0.0000</r>
       <r>  30.9973  0.0000</r>
       <r>  32.3978  0.0000</r>
       <r>  32.3978  0.0000</r>
       <r>  34.5911  0.0000</r>
       <r>  34.6309  0.0000</r>
       <r>  35.1846  0.0000</r>
       <r>  35.1846  0.0000</r>
       <r>  36.3314  0.0000</r>
       <r>  37.8369  0.0000</r>
       <r>  40.2116  0.0000</r>
       <r>  40.2116  0.0000</r>
       <r>  42.1785  0.0000</r>
       <r>  43.1217  0.0000</r>
       <r>  43.1217  0.0000</r>
       <r>  43.1882  0.0000</r>
       <r>  43.3583  0.0000</r>
       <r>  43.3583  0.0000</r>
       <r>  43.9888  0.0000</r>
       <r>  45.1134  0.0000</r>
       <r>  45.5213  0.0000</r>
       <r>  45.6596  0.0000</r>
       <r>  49.1066  0.0000</r>
       <r>  49.1066  0.0000</r>
       <r>  51.6944  0.0000</r>
       <r>  52.7323  0.0000</r>
       <r>  52.7323  0.0000</r>
       <r>  53.6371  0.0000</r>
       <r>  55.2867  0.0000</r>
       <r>  55.6307  0.0000</r>
       <r>  55.6356  0.0000</r>
       <r>  56.4631  0.0000</r>
       <r>  56.8890  0.0000</r>
      </set>
      <set comment="kpoint 114">
       <r> -19.8651  1.0000</r>
       <r> -19.8631  1.0000</r>
       <r> -19.8631  1.0000</r>
       <r> -19.8528  1.0000</r>
       <r> -19.8509  1.0000</r>
       <r> -12.4098  1.0000</r>
       <r> -12.3499  1.0000</r>
       <r> -12.3499  1.0000</r>
       <r>  -2.3645  1.0000</r>
       <r>  -1.9480  1.0000</r>
       <r>  -0.9929  1.0000</r>
       <r>  -0.9929  1.0000</r>
       <r>  -0.0742  1.0000</r>
       <r>   0.0892  1.0000</r>
       <r>   0.1925  1.0000</r>
       <r>   4.2105  1.0000</r>
       <r>   4.2105  1.0000</r>
       <r>   4.6064  0.6524</r>
       <r>   4.8799  0.0000</r>
       <r>   4.8799  0.0000</r>
       <r>   4.9200  0.0000</r>
       <r>   8.9129  0.0000</r>
       <r>   9.5236  0.0000</r>
       <r>  10.2596  0.0000</r>
       <r>  10.2596  0.0000</r>
       <r>  10.2740  0.0000</r>
       <r>  16.1210  0.0000</r>
       <r>  16.4915  0.0000</r>
       <r>  16.4915  0.0000</r>
       <r>  21.0701  0.0000</r>
       <r>  21.8042  0.0000</r>
       <r>  24.1174  0.0000</r>
       <r>  24.1174  0.0000</r>
       <r>  24.5252  0.0000</r>
       <r>  24.6498  0.0000</r>
       <r>  25.2699  0.0000</r>
       <r>  25.2699  0.0000</r>
       <r>  26.1154  0.0000</r>
       <r>  26.7067  0.0000</r>
       <r>  27.7567  0.0000</r>
       <r>  27.7567  0.0000</r>
       <r>  29.8268  0.0000</r>
       <r>  30.9297  0.0000</r>
       <r>  32.0203  0.0000</r>
       <r>  32.0203  0.0000</r>
       <r>  34.2451  0.0000</r>
       <r>  34.9447  0.0000</r>
       <r>  35.3754  0.0000</r>
       <r>  35.3754  0.0000</r>
       <r>  36.8128  0.0000</r>
       <r>  38.0155  0.0000</r>
       <r>  40.6357  0.0000</r>
       <r>  40.6357  0.0000</r>
       <r>  42.4941  0.0000</r>
       <r>  43.0481  0.0000</r>
       <r>  43.0481  0.0000</r>
       <r>  43.0759  0.0000</r>
       <r>  43.1471  0.0000</r>
       <r>  43.1471  0.0000</r>
       <r>  43.5808  0.0000</r>
       <r>  44.7668  0.0000</r>
       <r>  45.1398  0.0000</r>
       <r>  45.5322  0.0000</r>
       <r>  48.4886  0.0000</r>
       <r>  48.4886  0.0000</r>
       <r>  51.4613  0.0000</r>
       <r>  53.1502  0.0000</r>
       <r>  53.1502  0.0000</r>
       <r>  54.0969  0.0000</r>
       <r>  55.1629  0.0000</r>
       <r>  55.7567  0.0000</r>
       <r>  55.7658  0.0000</r>
       <r>  56.7317  0.0000</r>
       <r>  57.2464  0.0000</r>
      </set>
      <set comment="kpoint 115">
       <r> -19.8650  1.0000</r>
       <r> -19.8637  1.0000</r>
       <r> -19.8637  1.0000</r>
       <r> -19.8522  1.0000</r>
       <r> -19.8508  1.0000</r>
       <r> -12.3849  1.0000</r>
       <r> -12.3420  1.0000</r>
       <r> -12.3420  1.0000</r>
       <r>  -2.2015  1.0000</r>
       <r>  -2.0162  1.0000</r>
       <r>  -1.0847  1.0000</r>
       <r>  -1.0847  1.0000</r>
       <r>  -0.0732  1.0000</r>
       <r>  -0.0541  1.0000</r>
       <r>   0.0373  1.0000</r>
       <r>   4.3416  1.0000</r>
       <r>   4.3416  1.0000</r>
       <r>   4.6080  0.6354</r>
       <r>   4.8575  0.0000</r>
       <r>   4.8575  0.0000</r>
       <r>   4.8959  0.0000</r>
       <r>   9.0897  0.0000</r>
       <r>   9.5239  0.0000</r>
       <r>  10.3614  0.0000</r>
       <r>  10.3614  0.0000</r>
       <r>  10.3842  0.0000</r>
       <r>  16.0085  0.0000</r>
       <r>  16.2754  0.0000</r>
       <r>  16.2754  0.0000</r>
       <r>  21.1209  0.0000</r>
       <r>  22.2790  0.0000</r>
       <r>  24.4212  0.0000</r>
       <r>  24.4212  0.0000</r>
       <r>  24.5769  0.0000</r>
       <r>  24.7010  0.0000</r>
       <r>  25.2993  0.0000</r>
       <r>  25.2993  0.0000</r>
       <r>  26.0551  0.0000</r>
       <r>  26.6054  0.0000</r>
       <r>  27.5678  0.0000</r>
       <r>  27.5678  0.0000</r>
       <r>  29.0844  0.0000</r>
       <r>  30.9338  0.0000</r>
       <r>  31.6949  0.0000</r>
       <r>  31.6949  0.0000</r>
       <r>  33.9304  0.0000</r>
       <r>  35.2397  0.0000</r>
       <r>  35.5561  0.0000</r>
       <r>  35.5561  0.0000</r>
       <r>  37.2866  0.0000</r>
       <r>  38.2007  0.0000</r>
       <r>  41.0691  0.0000</r>
       <r>  41.0691  0.0000</r>
       <r>  42.7904  0.0000</r>
       <r>  42.8347  0.0000</r>
       <r>  42.8347  0.0000</r>
       <r>  42.9693  0.0000</r>
       <r>  43.0862  0.0000</r>
       <r>  43.0862  0.0000</r>
       <r>  43.2060  0.0000</r>
       <r>  44.4406  0.0000</r>
       <r>  44.6283  0.0000</r>
       <r>  45.5650  0.0000</r>
       <r>  47.8848  0.0000</r>
       <r>  47.8848  0.0000</r>
       <r>  51.1716  0.0000</r>
       <r>  53.5455  0.0000</r>
       <r>  53.5456  0.0000</r>
       <r>  54.5463  0.0000</r>
       <r>  54.9597  0.0000</r>
       <r>  55.8787  0.0000</r>
       <r>  55.8796  0.0000</r>
       <r>  56.4224  0.0000</r>
       <r>  58.1748  0.0000</r>
      </set>
      <set comment="kpoint 116">
       <r> -19.8650  1.0000</r>
       <r> -19.8642  1.0000</r>
       <r> -19.8642  1.0000</r>
       <r> -19.8518  1.0000</r>
       <r> -19.8508  1.0000</r>
       <r> -12.3633  1.0000</r>
       <r> -12.3351  1.0000</r>
       <r> -12.3351  1.0000</r>
       <r>  -2.0766  1.0000</r>
       <r>  -2.0278  1.0000</r>
       <r>  -1.1605  1.0000</r>
       <r>  -1.1605  1.0000</r>
       <r>  -0.2982  1.0000</r>
       <r>  -0.0723  1.0000</r>
       <r>  -0.0033  1.0000</r>
       <r>   4.4477  1.0000</r>
       <r>   4.4477  1.0000</r>
       <r>   4.6094  0.6206</r>
       <r>   4.8425  0.0000</r>
       <r>   4.8425  0.0000</r>
       <r>   4.8771  0.0000</r>
       <r>   9.2408  0.0000</r>
       <r>   9.5241  0.0000</r>
       <r>  10.4524  0.0000</r>
       <r>  10.4524  0.0000</r>
       <r>  10.4746  0.0000</r>
       <r>  15.9128  0.0000</r>
       <r>  16.0892  0.0000</r>
       <r>  16.0892  0.0000</r>
       <r>  21.1632  0.0000</r>
       <r>  22.7771  0.0000</r>
       <r>  24.5160  0.0000</r>
       <r>  24.7169  0.0000</r>
       <r>  24.7169  0.0000</r>
       <r>  24.8572  0.0000</r>
       <r>  25.3347  0.0000</r>
       <r>  25.3347  0.0000</r>
       <r>  26.0057  0.0000</r>
       <r>  26.5217  0.0000</r>
       <r>  27.3526  0.0000</r>
       <r>  27.3526  0.0000</r>
       <r>  28.3578  0.0000</r>
       <r>  30.9455  0.0000</r>
       <r>  31.4289  0.0000</r>
       <r>  31.4289  0.0000</r>
       <r>  33.6564  0.0000</r>
       <r>  35.5056  0.0000</r>
       <r>  35.7188  0.0000</r>
       <r>  35.7188  0.0000</r>
       <r>  37.7407  0.0000</r>
       <r>  38.3844  0.0000</r>
       <r>  41.4969  0.0000</r>
       <r>  41.4969  0.0000</r>
       <r>  42.6281  0.0000</r>
       <r>  42.6281  0.0000</r>
       <r>  42.8001  0.0000</r>
       <r>  42.9445  0.0000</r>
       <r>  43.0493  0.0000</r>
       <r>  43.0493  0.0000</r>
       <r>  43.0528  0.0000</r>
       <r>  44.1403  0.0000</r>
       <r>  44.1468  0.0000</r>
       <r>  45.6222  0.0000</r>
       <r>  47.3083  0.0000</r>
       <r>  47.3083  0.0000</r>
       <r>  50.8514  0.0000</r>
       <r>  53.8991  0.0000</r>
       <r>  53.8991  0.0000</r>
       <r>  54.8056  0.0000</r>
       <r>  54.9717  0.0000</r>
       <r>  55.9955  0.0000</r>
       <r>  55.9956  0.0000</r>
       <r>  56.3705  0.0000</r>
       <r>  58.4868  0.0000</r>
      </set>
      <set comment="kpoint 117">
       <r> -19.8648  1.0000</r>
       <r> -19.8644  1.0000</r>
       <r> -19.8644  1.0000</r>
       <r> -19.8513  1.0000</r>
       <r> -19.8507  1.0000</r>
       <r> -12.3457  1.0000</r>
       <r> -12.3295  1.0000</r>
       <r> -12.3295  1.0000</r>
       <r>  -2.1263  1.0000</r>
       <r>  -1.8439  1.0000</r>
       <r>  -1.2198  1.0000</r>
       <r>  -1.2198  1.0000</r>
       <r>  -0.5381  1.0000</r>
       <r>  -0.0716  1.0000</r>
       <r>  -0.0335  1.0000</r>
       <r>   4.5265  0.9960</r>
       <r>   4.5265  0.9960</r>
       <r>   4.6105  0.6081</r>
       <r>   4.8362  0.0000</r>
       <r>   4.8362  0.0000</r>
       <r>   4.8630  0.0000</r>
       <r>   9.3624  0.0000</r>
       <r>   9.5243  0.0000</r>
       <r>  10.5288  0.0000</r>
       <r>  10.5288  0.0000</r>
       <r>  10.5450  0.0000</r>
       <r>  15.8359  0.0000</r>
       <r>  15.9379  0.0000</r>
       <r>  15.9379  0.0000</r>
       <r>  21.1969  0.0000</r>
       <r>  23.2881  0.0000</r>
       <r>  24.4679  0.0000</r>
       <r>  24.9690  0.0000</r>
       <r>  24.9690  0.0000</r>
       <r>  24.9876  0.0000</r>
       <r>  25.4124  0.0000</r>
       <r>  25.4124  0.0000</r>
       <r>  25.9698  0.0000</r>
       <r>  26.4562  0.0000</r>
       <r>  27.1088  0.0000</r>
       <r>  27.1088  0.0000</r>
       <r>  27.6640  0.0000</r>
       <r>  30.9569  0.0000</r>
       <r>  31.2254  0.0000</r>
       <r>  31.2254  0.0000</r>
       <r>  33.4319  0.0000</r>
       <r>  35.7309  0.0000</r>
       <r>  35.8563  0.0000</r>
       <r>  35.8563  0.0000</r>
       <r>  38.1563  0.0000</r>
       <r>  38.5553  0.0000</r>
       <r>  41.8838  0.0000</r>
       <r>  41.8838  0.0000</r>
       <r>  42.4786  0.0000</r>
       <r>  42.4786  0.0000</r>
       <r>  42.5243  0.0000</r>
       <r>  42.8545  0.0000</r>
       <r>  43.0185  0.0000</r>
       <r>  43.0185  0.0000</r>
       <r>  43.2671  0.0000</r>
       <r>  43.6966  0.0000</r>
       <r>  43.8985  0.0000</r>
       <r>  45.7006  0.0000</r>
       <r>  46.7779  0.0000</r>
       <r>  46.7779  0.0000</r>
       <r>  50.5364  0.0000</r>
       <r>  54.1937  0.0000</r>
       <r>  54.1937  0.0000</r>
       <r>  54.7030  0.0000</r>
       <r>  55.3542  0.0000</r>
       <r>  56.1050  0.0000</r>
       <r>  56.1052  0.0000</r>
       <r>  56.3334  0.0000</r>
       <r>  58.9696  0.0000</r>
      </set>
      <set comment="kpoint 118">
       <r> -19.8648  1.0000</r>
       <r> -19.8646  1.0000</r>
       <r> -19.8646  1.0000</r>
       <r> -19.8510  1.0000</r>
       <r> -19.8507  1.0000</r>
       <r> -12.3327  1.0000</r>
       <r> -12.3254  1.0000</r>
       <r> -12.3254  1.0000</r>
       <r>  -2.1635  1.0000</r>
       <r>  -1.6509  1.0000</r>
       <r>  -1.2624  1.0000</r>
       <r>  -1.2624  1.0000</r>
       <r>  -0.7718  1.0000</r>
       <r>  -0.0711  1.0000</r>
       <r>  -0.0544  1.0000</r>
       <r>   4.5773  0.8874</r>
       <r>   4.5773  0.8874</r>
       <r>   4.6114  0.5990</r>
       <r>   4.8379  0.0000</r>
       <r>   4.8379  0.0000</r>
       <r>   4.8533  0.0000</r>
       <r>   9.4517  0.0000</r>
       <r>   9.5245  0.0000</r>
       <r>  10.5869  0.0000</r>
       <r>  10.5869  0.0000</r>
       <r>  10.5953  0.0000</r>
       <r>  15.7795  0.0000</r>
       <r>  15.8257  0.0000</r>
       <r>  15.8257  0.0000</r>
       <r>  21.2213  0.0000</r>
       <r>  23.7884  0.0000</r>
       <r>  24.4331  0.0000</r>
       <r>  25.0860  0.0000</r>
       <r>  25.1104  0.0000</r>
       <r>  25.1104  0.0000</r>
       <r>  25.5974  0.0000</r>
       <r>  25.5974  0.0000</r>
       <r>  25.9527  0.0000</r>
       <r>  26.4091  0.0000</r>
       <r>  26.8401  0.0000</r>
       <r>  26.8401  0.0000</r>
       <r>  27.0234  0.0000</r>
       <r>  30.9656  0.0000</r>
       <r>  31.0835  0.0000</r>
       <r>  31.0835  0.0000</r>
       <r>  33.2650  0.0000</r>
       <r>  35.9036  0.0000</r>
       <r>  35.9612  0.0000</r>
       <r>  35.9612  0.0000</r>
       <r>  38.5041  0.0000</r>
       <r>  38.6981  0.0000</r>
       <r>  42.1034  0.0000</r>
       <r>  42.1034  0.0000</r>
       <r>  42.2923  0.0000</r>
       <r>  42.4924  0.0000</r>
       <r>  42.4924  0.0000</r>
       <r>  42.8027  0.0000</r>
       <r>  42.9960  0.0000</r>
       <r>  42.9960  0.0000</r>
       <r>  43.3274  0.0000</r>
       <r>  43.4233  0.0000</r>
       <r>  43.7086  0.0000</r>
       <r>  45.7862  0.0000</r>
       <r>  46.3248  0.0000</r>
       <r>  46.3248  0.0000</r>
       <r>  50.2667  0.0000</r>
       <r>  54.4139  0.0000</r>
       <r>  54.4139  0.0000</r>
       <r>  54.6396  0.0000</r>
       <r>  55.6665  0.0000</r>
       <r>  56.1976  0.0000</r>
       <r>  56.1979  0.0000</r>
       <r>  56.3070  0.0000</r>
       <r>  59.1193  0.0000</r>
      </set>
      <set comment="kpoint 119">
       <r> -19.8648  1.0000</r>
       <r> -19.8647  1.0000</r>
       <r> -19.8647  1.0000</r>
       <r> -19.8507  1.0000</r>
       <r> -19.8506  1.0000</r>
       <r> -12.3247  1.0000</r>
       <r> -12.3229  1.0000</r>
       <r> -12.3229  1.0000</r>
       <r>  -2.1864  1.0000</r>
       <r>  -1.4517  1.0000</r>
       <r>  -1.2880  1.0000</r>
       <r>  -1.2880  1.0000</r>
       <r>  -0.9956  1.0000</r>
       <r>  -0.0708  1.0000</r>
       <r>  -0.0666  1.0000</r>
       <r>   4.6040  0.6764</r>
       <r>   4.6040  0.6764</r>
       <r>   4.6119  0.5933</r>
       <r>   4.8431  0.0000</r>
       <r>   4.8431  0.0000</r>
       <r>   4.8476  0.0000</r>
       <r>   9.5063  0.0000</r>
       <r>   9.5246  0.0000</r>
       <r>  10.6232  0.0000</r>
       <r>  10.6232  0.0000</r>
       <r>  10.6255  0.0000</r>
       <r>  15.7450  0.0000</r>
       <r>  15.7567  0.0000</r>
       <r>  15.7567  0.0000</r>
       <r>  21.2361  0.0000</r>
       <r>  24.2147  0.0000</r>
       <r>  24.4120  0.0000</r>
       <r>  25.1474  0.0000</r>
       <r>  25.1578  0.0000</r>
       <r>  25.1578  0.0000</r>
       <r>  25.8619  0.0000</r>
       <r>  25.8619  0.0000</r>
       <r>  25.9722  0.0000</r>
       <r>  26.3808  0.0000</r>
       <r>  26.4829  0.0000</r>
       <r>  26.5608  0.0000</r>
       <r>  26.5608  0.0000</r>
       <r>  30.9710  0.0000</r>
       <r>  31.0002  0.0000</r>
       <r>  31.0002  0.0000</r>
       <r>  33.1619  0.0000</r>
       <r>  36.0125  0.0000</r>
       <r>  36.0273  0.0000</r>
       <r>  36.0273  0.0000</r>
       <r>  38.7433  0.0000</r>
       <r>  38.7952  0.0000</r>
       <r>  42.1034  0.0000</r>
       <r>  42.1034  0.0000</r>
       <r>  42.1403  0.0000</r>
       <r>  42.6759  0.0000</r>
       <r>  42.6759  0.0000</r>
       <r>  42.7726  0.0000</r>
       <r>  42.9850  0.0000</r>
       <r>  42.9850  0.0000</r>
       <r>  43.0751  0.0000</r>
       <r>  43.5170  0.0000</r>
       <r>  43.5890  0.0000</r>
       <r>  45.8551  0.0000</r>
       <r>  46.0023  0.0000</r>
       <r>  46.0023  0.0000</r>
       <r>  50.0828  0.0000</r>
       <r>  54.5496  0.0000</r>
       <r>  54.5496  0.0000</r>
       <r>  54.6058  0.0000</r>
       <r>  55.8751  0.0000</r>
       <r>  56.2629  0.0000</r>
       <r>  56.2629  0.0000</r>
       <r>  56.2915  0.0000</r>
       <r>  59.2353  0.0000</r>
      </set>
      <set comment="kpoint 120">
       <r> -19.8648  1.0000</r>
       <r> -19.8648  1.0000</r>
       <r> -19.8648  1.0000</r>
       <r> -19.8506  1.0000</r>
       <r> -19.8506  1.0000</r>
       <r> -12.3221  1.0000</r>
       <r> -12.3221  1.0000</r>
       <r> -12.3220  1.0000</r>
       <r>  -2.1941  1.0000</r>
       <r>  -1.2965  1.0000</r>
       <r>  -1.2965  1.0000</r>
       <r>  -1.2965  1.0000</r>
       <r>  -1.1590  1.0000</r>
       <r>  -0.0707  1.0000</r>
       <r>  -0.0707  1.0000</r>
       <r>   4.6120  0.5914</r>
       <r>   4.6120  0.5914</r>
       <r>   4.6120  0.5914</r>
       <r>   4.8457  0.0000</r>
       <r>   4.8457  0.0000</r>
       <r>   4.8457  0.0000</r>
       <r>   9.5246  0.0000</r>
       <r>   9.5246  0.0000</r>
       <r>  10.6356  0.0000</r>
       <r>  10.6356  0.0000</r>
       <r>  10.6356  0.0000</r>
       <r>  15.7334  0.0000</r>
       <r>  15.7334  0.0000</r>
       <r>  15.7334  0.0000</r>
       <r>  21.2410  0.0000</r>
       <r>  24.4050  0.0000</r>
       <r>  24.4050  0.0000</r>
       <r>  25.1683  0.0000</r>
       <r>  25.1683  0.0000</r>
       <r>  25.1683  0.0000</r>
       <r>  26.0513  0.0000</r>
       <r>  26.0513  0.0000</r>
       <r>  26.0513  0.0000</r>
       <r>  26.1820  0.0000</r>
       <r>  26.3713  0.0000</r>
       <r>  26.3713  0.0000</r>
       <r>  26.3713  0.0000</r>
       <r>  30.9729  0.0000</r>
       <r>  30.9729  0.0000</r>
       <r>  30.9729  0.0000</r>
       <r>  33.1271  0.0000</r>
       <r>  36.0498  0.0000</r>
       <r>  36.0498  0.0000</r>
       <r>  36.0498  0.0000</r>
       <r>  38.8298  0.0000</r>
       <r>  38.8298  0.0000</r>
       <r>  42.0872  0.0000</r>
       <r>  42.0872  0.0000</r>
       <r>  42.0872  0.0000</r>
       <r>  42.7626  0.0000</r>
       <r>  42.7626  0.0000</r>
       <r>  42.7626  0.0000</r>
       <r>  42.9842  0.0000</r>
       <r>  42.9842  0.0000</r>
       <r>  42.9842  0.0000</r>
       <r>  43.5481  0.0000</r>
       <r>  43.5481  0.0000</r>
       <r>  45.8818  0.0000</r>
       <r>  45.8818  0.0000</r>
       <r>  45.8818  0.0000</r>
       <r>  50.0172  0.0000</r>
       <r>  54.5952  0.0000</r>
       <r>  54.5952  0.0000</r>
       <r>  54.5952  0.0000</r>
       <r>  55.9493  0.0000</r>
       <r>  56.2862  0.0000</r>
       <r>  56.2864  0.0000</r>
       <r>  56.2865  0.0000</r>
       <r>  59.2808  0.0000</r>
      </set>
     </set>
    </set>
   </array>
  </eigenvalues>
 </calculation>
 <structure name="finalpos" >
  <crystal>
   <varray name="basis" >
    <v>       3.76292311       0.00000000       0.00000000 </v>
    <v>       0.00000000       3.76292311       0.00000000 </v>
    <v>       0.00000000       0.00000000       3.76292311 </v>
   </varray>
   <i name="volume">     53.28144983</i>
   <varray name="rec_basis" >
    <v>       0.26575085       0.00000000       0.00000000 </v>
    <v>       0.00000000       0.26575085       0.00000000 </v>
    <v>       0.00000000       0.00000000       0.26575085 </v>
   </varray>
  </crystal>
  <varray name="positions" >
   <v>       0.50000000       0.50000000       0.50000000 </v>
   <v>       0.00000000       0.00000000       0.00000000 </v>
   <v>       0.00000000       0.50000000       0.50000000 </v>
   <v>       0.50000000       0.00000000       0.50000000 </v>
   <v>       0.50000000       0.50000000       0.00000000 </v>
  </varray>
 </structure>
</modeling>
