<?xml version="1.0" encoding="ISO-8859-1"?>
<modeling>
 <generator>
  <i name="program" type="string">vasp</i>
  <i name="version" type="string">4.6.35 </i>
  <i name="subversion" type="string">3Apr08 complex  parallel</i>
  <i name="platform" type="string">LinuxIFC</i>
  <i name="date" type="string">2017 01 10</i>
  <i name="time" type="string">11:59:28</i>
 </generator>
 <incar>
  <i type="string" name="SYSTEM">Ge_hNa_svZn.TFCC005.BCA</i>
  <i type="string" name="PREC">high</i>
  <i type="string" name="ALGO">Fast</i>
  <i type="int" name="ISPIN">     2</i>
  <i type="int" name="IBRION">     2</i>
  <i type="int" name="NSW">    51</i>
  <i type="int" name="ISIF">     3</i>
  <i type="int" name="ISYM">     2</i>
  <i name="ENMAX">    980.00000000</i>
  <i type="int" name="NBANDS">    75</i>
  <v name="MAGMOM">      1.00000000      1.00000000      1.00000000      1.00000000</v>
  <i type="logical" name="LPLANE"> T  </i>
  <i type="int" name="ISMEAR">     1</i>
  <i name="SIGMA">      0.10000000</i>
  <i type="int" name="NSIM">     4</i>
  <i type="logical" name="LWAVE"> F  </i>
  <i type="logical" name="LCHARG"> T  </i>
  <i type="logical" name="LSCALU"> F  </i>
 </incar>
 <kpoints>
  <generation param="Monkhorst-Pack">
   <v type="int" name="divisions">      16      12       8</v>
   <v name="usershift">      0.00000000       0.00000000       0.00000000 </v>
   <v name="genvec1">      0.06250000       0.00000000       0.00000000 </v>
   <v name="genvec2">      0.00000000       0.08333333       0.00000000 </v>
   <v name="genvec3">      0.00000000       0.00000000       0.12500000 </v>
   <v name="shift">      0.50000000       0.50000000       0.50000000 </v>
  </generation>
  <varray name="kpointlist" >
   <v>       0.03125000       0.04166667       0.06250000 </v>
   <v>       0.09375000       0.04166667       0.06250000 </v>
   <v>       0.15625000       0.04166667       0.06250000 </v>
   <v>       0.21875000       0.04166667       0.06250000 </v>
   <v>       0.28125000       0.04166667       0.06250000 </v>
   <v>       0.34375000       0.04166667       0.06250000 </v>
   <v>       0.40625000       0.04166667       0.06250000 </v>
   <v>       0.46875000       0.04166667       0.06250000 </v>
   <v>       0.03125000       0.12500000       0.06250000 </v>
   <v>       0.09375000       0.12500000       0.06250000 </v>
   <v>       0.15625000       0.12500000       0.06250000 </v>
   <v>       0.21875000       0.12500000       0.06250000 </v>
   <v>       0.28125000       0.12500000       0.06250000 </v>
   <v>       0.34375000       0.12500000       0.06250000 </v>
   <v>       0.40625000       0.12500000       0.06250000 </v>
   <v>       0.46875000       0.12500000       0.06250000 </v>
   <v>       0.03125000       0.20833333       0.06250000 </v>
   <v>       0.09375000       0.20833333       0.06250000 </v>
   <v>       0.15625000       0.20833333       0.06250000 </v>
   <v>       0.21875000       0.20833333       0.06250000 </v>
   <v>       0.28125000       0.20833333       0.06250000 </v>
   <v>       0.34375000       0.20833333       0.06250000 </v>
   <v>       0.40625000       0.20833333       0.06250000 </v>
   <v>       0.46875000       0.20833333       0.06250000 </v>
   <v>       0.03125000       0.29166667       0.06250000 </v>
   <v>       0.09375000       0.29166667       0.06250000 </v>
   <v>       0.15625000       0.29166667       0.06250000 </v>
   <v>       0.21875000       0.29166667       0.06250000 </v>
   <v>       0.28125000       0.29166667       0.06250000 </v>
   <v>       0.34375000       0.29166667       0.06250000 </v>
   <v>       0.40625000       0.29166667       0.06250000 </v>
   <v>       0.46875000       0.29166667       0.06250000 </v>
   <v>       0.03125000       0.37500000       0.06250000 </v>
   <v>       0.09375000       0.37500000       0.06250000 </v>
   <v>       0.15625000       0.37500000       0.06250000 </v>
   <v>       0.21875000       0.37500000       0.06250000 </v>
   <v>       0.28125000       0.37500000       0.06250000 </v>
   <v>       0.34375000       0.37500000       0.06250000 </v>
   <v>       0.40625000       0.37500000       0.06250000 </v>
   <v>       0.46875000       0.37500000       0.06250000 </v>
   <v>       0.03125000       0.45833333       0.06250000 </v>
   <v>       0.09375000       0.45833333       0.06250000 </v>
   <v>       0.15625000       0.45833333       0.06250000 </v>
   <v>       0.21875000       0.45833333       0.06250000 </v>
   <v>       0.28125000       0.45833333       0.06250000 </v>
   <v>       0.34375000       0.45833333       0.06250000 </v>
   <v>       0.40625000       0.45833333       0.06250000 </v>
   <v>       0.46875000       0.45833333       0.06250000 </v>
   <v>       0.03125000       0.04166667       0.18750000 </v>
   <v>       0.09375000       0.04166667       0.18750000 </v>
   <v>       0.15625000       0.04166667       0.18750000 </v>
   <v>       0.21875000       0.04166667       0.18750000 </v>
   <v>       0.28125000       0.04166667       0.18750000 </v>
   <v>       0.34375000       0.04166667       0.18750000 </v>
   <v>       0.40625000       0.04166667       0.18750000 </v>
   <v>       0.46875000       0.04166667       0.18750000 </v>
   <v>       0.03125000       0.12500000       0.18750000 </v>
   <v>       0.09375000       0.12500000       0.18750000 </v>
   <v>       0.15625000       0.12500000       0.18750000 </v>
   <v>       0.21875000       0.12500000       0.18750000 </v>
   <v>       0.28125000       0.12500000       0.18750000 </v>
   <v>       0.34375000       0.12500000       0.18750000 </v>
   <v>       0.40625000       0.12500000       0.18750000 </v>
   <v>       0.46875000       0.12500000       0.18750000 </v>
   <v>       0.03125000       0.20833333       0.18750000 </v>
   <v>       0.09375000       0.20833333       0.18750000 </v>
   <v>       0.15625000       0.20833333       0.18750000 </v>
   <v>       0.21875000       0.20833333       0.18750000 </v>
   <v>       0.28125000       0.20833333       0.18750000 </v>
   <v>       0.34375000       0.20833333       0.18750000 </v>
   <v>       0.40625000       0.20833333       0.18750000 </v>
   <v>       0.46875000       0.20833333       0.18750000 </v>
   <v>       0.03125000       0.29166667       0.18750000 </v>
   <v>       0.09375000       0.29166667       0.18750000 </v>
   <v>       0.15625000       0.29166667       0.18750000 </v>
   <v>       0.21875000       0.29166667       0.18750000 </v>
   <v>       0.28125000       0.29166667       0.18750000 </v>
   <v>       0.34375000       0.29166667       0.18750000 </v>
   <v>       0.40625000       0.29166667       0.18750000 </v>
   <v>       0.46875000       0.29166667       0.18750000 </v>
   <v>       0.03125000       0.37500000       0.18750000 </v>
   <v>       0.09375000       0.37500000       0.18750000 </v>
   <v>       0.15625000       0.37500000       0.18750000 </v>
   <v>       0.21875000       0.37500000       0.18750000 </v>
   <v>       0.28125000       0.37500000       0.18750000 </v>
   <v>       0.34375000       0.37500000       0.18750000 </v>
   <v>       0.40625000       0.37500000       0.18750000 </v>
   <v>       0.46875000       0.37500000       0.18750000 </v>
   <v>       0.03125000       0.45833333       0.18750000 </v>
   <v>       0.09375000       0.45833333       0.18750000 </v>
   <v>       0.15625000       0.45833333       0.18750000 </v>
   <v>       0.21875000       0.45833333       0.18750000 </v>
   <v>       0.28125000       0.45833333       0.18750000 </v>
   <v>       0.34375000       0.45833333       0.18750000 </v>
   <v>       0.40625000       0.45833333       0.18750000 </v>
   <v>       0.46875000       0.45833333       0.18750000 </v>
   <v>       0.03125000       0.04166667       0.31250000 </v>
   <v>       0.09375000       0.04166667       0.31250000 </v>
   <v>       0.15625000       0.04166667       0.31250000 </v>
   <v>       0.21875000       0.04166667       0.31250000 </v>
   <v>       0.28125000       0.04166667       0.31250000 </v>
   <v>       0.34375000       0.04166667       0.31250000 </v>
   <v>       0.40625000       0.04166667       0.31250000 </v>
   <v>       0.46875000       0.04166667       0.31250000 </v>
   <v>       0.03125000       0.12500000       0.31250000 </v>
   <v>       0.09375000       0.12500000       0.31250000 </v>
   <v>       0.15625000       0.12500000       0.31250000 </v>
   <v>       0.21875000       0.12500000       0.31250000 </v>
   <v>       0.28125000       0.12500000       0.31250000 </v>
   <v>       0.34375000       0.12500000       0.31250000 </v>
   <v>       0.40625000       0.12500000       0.31250000 </v>
   <v>       0.46875000       0.12500000       0.31250000 </v>
   <v>       0.03125000       0.20833333       0.31250000 </v>
   <v>       0.09375000       0.20833333       0.31250000 </v>
   <v>       0.15625000       0.20833333       0.31250000 </v>
   <v>       0.21875000       0.20833333       0.31250000 </v>
   <v>       0.28125000       0.20833333       0.31250000 </v>
   <v>       0.34375000       0.20833333       0.31250000 </v>
   <v>       0.40625000       0.20833333       0.31250000 </v>
   <v>       0.46875000       0.20833333       0.31250000 </v>
   <v>       0.03125000       0.29166667       0.31250000 </v>
   <v>       0.09375000       0.29166667       0.31250000 </v>
   <v>       0.15625000       0.29166667       0.31250000 </v>
   <v>       0.21875000       0.29166667       0.31250000 </v>
   <v>       0.28125000       0.29166667       0.31250000 </v>
   <v>       0.34375000       0.29166667       0.31250000 </v>
   <v>       0.40625000       0.29166667       0.31250000 </v>
   <v>       0.46875000       0.29166667       0.31250000 </v>
   <v>       0.03125000       0.37500000       0.31250000 </v>
   <v>       0.09375000       0.37500000       0.31250000 </v>
   <v>       0.15625000       0.37500000       0.31250000 </v>
   <v>       0.21875000       0.37500000       0.31250000 </v>
   <v>       0.28125000       0.37500000       0.31250000 </v>
   <v>       0.34375000       0.37500000       0.31250000 </v>
   <v>       0.40625000       0.37500000       0.31250000 </v>
   <v>       0.46875000       0.37500000       0.31250000 </v>
   <v>       0.03125000       0.45833333       0.31250000 </v>
   <v>       0.09375000       0.45833333       0.31250000 </v>
   <v>       0.15625000       0.45833333       0.31250000 </v>
   <v>       0.21875000       0.45833333       0.31250000 </v>
   <v>       0.28125000       0.45833333       0.31250000 </v>
   <v>       0.34375000       0.45833333       0.31250000 </v>
   <v>       0.40625000       0.45833333       0.31250000 </v>
   <v>       0.46875000       0.45833333       0.31250000 </v>
   <v>       0.03125000       0.04166667       0.43750000 </v>
   <v>       0.09375000       0.04166667       0.43750000 </v>
   <v>       0.15625000       0.04166667       0.43750000 </v>
   <v>       0.21875000       0.04166667       0.43750000 </v>
   <v>       0.28125000       0.04166667       0.43750000 </v>
   <v>       0.34375000       0.04166667       0.43750000 </v>
   <v>       0.40625000       0.04166667       0.43750000 </v>
   <v>       0.46875000       0.04166667       0.43750000 </v>
   <v>       0.03125000       0.12500000       0.43750000 </v>
   <v>       0.09375000       0.12500000       0.43750000 </v>
   <v>       0.15625000       0.12500000       0.43750000 </v>
   <v>       0.21875000       0.12500000       0.43750000 </v>
   <v>       0.28125000       0.12500000       0.43750000 </v>
   <v>       0.34375000       0.12500000       0.43750000 </v>
   <v>       0.40625000       0.12500000       0.43750000 </v>
   <v>       0.46875000       0.12500000       0.43750000 </v>
   <v>       0.03125000       0.20833333       0.43750000 </v>
   <v>       0.09375000       0.20833333       0.43750000 </v>
   <v>       0.15625000       0.20833333       0.43750000 </v>
   <v>       0.21875000       0.20833333       0.43750000 </v>
   <v>       0.28125000       0.20833333       0.43750000 </v>
   <v>       0.34375000       0.20833333       0.43750000 </v>
   <v>       0.40625000       0.20833333       0.43750000 </v>
   <v>       0.46875000       0.20833333       0.43750000 </v>
   <v>       0.03125000       0.29166667       0.43750000 </v>
   <v>       0.09375000       0.29166667       0.43750000 </v>
   <v>       0.15625000       0.29166667       0.43750000 </v>
   <v>       0.21875000       0.29166667       0.43750000 </v>
   <v>       0.28125000       0.29166667       0.43750000 </v>
   <v>       0.34375000       0.29166667       0.43750000 </v>
   <v>       0.40625000       0.29166667       0.43750000 </v>
   <v>       0.46875000       0.29166667       0.43750000 </v>
   <v>       0.03125000       0.37500000       0.43750000 </v>
   <v>       0.09375000       0.37500000       0.43750000 </v>
   <v>       0.15625000       0.37500000       0.43750000 </v>
   <v>       0.21875000       0.37500000       0.43750000 </v>
   <v>       0.28125000       0.37500000       0.43750000 </v>
   <v>       0.34375000       0.37500000       0.43750000 </v>
   <v>       0.40625000       0.37500000       0.43750000 </v>
   <v>       0.46875000       0.37500000       0.43750000 </v>
   <v>       0.03125000       0.45833333       0.43750000 </v>
   <v>       0.09375000       0.45833333       0.43750000 </v>
   <v>       0.15625000       0.45833333       0.43750000 </v>
   <v>       0.21875000       0.45833333       0.43750000 </v>
   <v>       0.28125000       0.45833333       0.43750000 </v>
   <v>       0.34375000       0.45833333       0.43750000 </v>
   <v>       0.40625000       0.45833333       0.43750000 </v>
   <v>       0.46875000       0.45833333       0.43750000 </v>
  </varray>
  <varray name="weights" >
   <v>       0.00520833 </v>
   <v>       0.00520833 </v>
   <v>       0.00520833 </v>
   <v>       0.00520833 </v>
   <v>       0.00520833 </v>
   <v>       0.00520833 </v>
   <v>       0.00520833 </v>
   <v>       0.00520833 </v>
   <v>       0.00520833 </v>
   <v>       0.00520833 </v>
   <v>       0.00520833 </v>
   <v>       0.00520833 </v>
   <v>       0.00520833 </v>
   <v>       0.00520833 </v>
   <v>       0.00520833 </v>
   <v>       0.00520833 </v>
   <v>       0.00520833 </v>
   <v>       0.00520833 </v>
   <v>       0.00520833 </v>
   <v>       0.00520833 </v>
   <v>       0.00520833 </v>
   <v>       0.00520833 </v>
   <v>       0.00520833 </v>
   <v>       0.00520833 </v>
   <v>       0.00520833 </v>
   <v>       0.00520833 </v>
   <v>       0.00520833 </v>
   <v>       0.00520833 </v>
   <v>       0.00520833 </v>
   <v>       0.00520833 </v>
   <v>       0.00520833 </v>
   <v>       0.00520833 </v>
   <v>       0.00520833 </v>
   <v>       0.00520833 </v>
   <v>       0.00520833 </v>
   <v>       0.00520833 </v>
   <v>       0.00520833 </v>
   <v>       0.00520833 </v>
   <v>       0.00520833 </v>
   <v>       0.00520833 </v>
   <v>       0.00520833 </v>
   <v>       0.00520833 </v>
   <v>       0.00520833 </v>
   <v>       0.00520833 </v>
   <v>       0.00520833 </v>
   <v>       0.00520833 </v>
   <v>       0.00520833 </v>
   <v>       0.00520833 </v>
   <v>       0.00520833 </v>
   <v>       0.00520833 </v>
   <v>       0.00520833 </v>
   <v>       0.00520833 </v>
   <v>       0.00520833 </v>
   <v>       0.00520833 </v>
   <v>       0.00520833 </v>
   <v>       0.00520833 </v>
   <v>       0.00520833 </v>
   <v>       0.00520833 </v>
   <v>       0.00520833 </v>
   <v>       0.00520833 </v>
   <v>       0.00520833 </v>
   <v>       0.00520833 </v>
   <v>       0.00520833 </v>
   <v>       0.00520833 </v>
   <v>       0.00520833 </v>
   <v>       0.00520833 </v>
   <v>       0.00520833 </v>
   <v>       0.00520833 </v>
   <v>       0.00520833 </v>
   <v>       0.00520833 </v>
   <v>       0.00520833 </v>
   <v>       0.00520833 </v>
   <v>       0.00520833 </v>
   <v>       0.00520833 </v>
   <v>       0.00520833 </v>
   <v>       0.00520833 </v>
   <v>       0.00520833 </v>
   <v>       0.00520833 </v>
   <v>       0.00520833 </v>
   <v>       0.00520833 </v>
   <v>       0.00520833 </v>
   <v>       0.00520833 </v>
   <v>       0.00520833 </v>
   <v>       0.00520833 </v>
   <v>       0.00520833 </v>
   <v>       0.00520833 </v>
   <v>       0.00520833 </v>
   <v>       0.00520833 </v>
   <v>       0.00520833 </v>
   <v>       0.00520833 </v>
   <v>       0.00520833 </v>
   <v>       0.00520833 </v>
   <v>       0.00520833 </v>
   <v>       0.00520833 </v>
   <v>       0.00520833 </v>
   <v>       0.00520833 </v>
   <v>       0.00520833 </v>
   <v>       0.00520833 </v>
   <v>       0.00520833 </v>
   <v>       0.00520833 </v>
   <v>       0.00520833 </v>
   <v>       0.00520833 </v>
   <v>       0.00520833 </v>
   <v>       0.00520833 </v>
   <v>       0.00520833 </v>
   <v>       0.00520833 </v>
   <v>       0.00520833 </v>
   <v>       0.00520833 </v>
   <v>       0.00520833 </v>
   <v>       0.00520833 </v>
   <v>       0.00520833 </v>
   <v>       0.00520833 </v>
   <v>       0.00520833 </v>
   <v>       0.00520833 </v>
   <v>       0.00520833 </v>
   <v>       0.00520833 </v>
   <v>       0.00520833 </v>
   <v>       0.00520833 </v>
   <v>       0.00520833 </v>
   <v>       0.00520833 </v>
   <v>       0.00520833 </v>
   <v>       0.00520833 </v>
   <v>       0.00520833 </v>
   <v>       0.00520833 </v>
   <v>       0.00520833 </v>
   <v>       0.00520833 </v>
   <v>       0.00520833 </v>
   <v>       0.00520833 </v>
   <v>       0.00520833 </v>
   <v>       0.00520833 </v>
   <v>       0.00520833 </v>
   <v>       0.00520833 </v>
   <v>       0.00520833 </v>
   <v>       0.00520833 </v>
   <v>       0.00520833 </v>
   <v>       0.00520833 </v>
   <v>       0.00520833 </v>
   <v>       0.00520833 </v>
   <v>       0.00520833 </v>
   <v>       0.00520833 </v>
   <v>       0.00520833 </v>
   <v>       0.00520833 </v>
   <v>       0.00520833 </v>
   <v>       0.00520833 </v>
   <v>       0.00520833 </v>
   <v>       0.00520833 </v>
   <v>       0.00520833 </v>
   <v>       0.00520833 </v>
   <v>       0.00520833 </v>
   <v>       0.00520833 </v>
   <v>       0.00520833 </v>
   <v>       0.00520833 </v>
   <v>       0.00520833 </v>
   <v>       0.00520833 </v>
   <v>       0.00520833 </v>
   <v>       0.00520833 </v>
   <v>       0.00520833 </v>
   <v>       0.00520833 </v>
   <v>       0.00520833 </v>
   <v>       0.00520833 </v>
   <v>       0.00520833 </v>
   <v>       0.00520833 </v>
   <v>       0.00520833 </v>
   <v>       0.00520833 </v>
   <v>       0.00520833 </v>
   <v>       0.00520833 </v>
   <v>       0.00520833 </v>
   <v>       0.00520833 </v>
   <v>       0.00520833 </v>
   <v>       0.00520833 </v>
   <v>       0.00520833 </v>
   <v>       0.00520833 </v>
   <v>       0.00520833 </v>
   <v>       0.00520833 </v>
   <v>       0.00520833 </v>
   <v>       0.00520833 </v>
   <v>       0.00520833 </v>
   <v>       0.00520833 </v>
   <v>       0.00520833 </v>
   <v>       0.00520833 </v>
   <v>       0.00520833 </v>
   <v>       0.00520833 </v>
   <v>       0.00520833 </v>
   <v>       0.00520833 </v>
   <v>       0.00520833 </v>
   <v>       0.00520833 </v>
   <v>       0.00520833 </v>
   <v>       0.00520833 </v>
   <v>       0.00520833 </v>
   <v>       0.00520833 </v>
   <v>       0.00520833 </v>
   <v>       0.00520833 </v>
  </varray>
 </kpoints>
 <parameters>
  <separator name="general" >
   <i type="string" name="SYSTEM">Ge_hNa_svZn.TFCC005.BCA</i>
   <i type="logical" name="LCOMPAT"> F  </i>
  </separator>
  <separator name="electronic" >
   <i type="string" name="PREC">high</i>
   <i name="ENMAX">    980.00000000</i>
   <i name="ENAUG">   1000.00000000</i>
   <i name="EDIFF">      0.00010000</i>
   <i type="int" name="IALGO">    68</i>
   <i type="int" name="IWAVPR">    11</i>
   <i type="int" name="NBANDS">    75</i>
   <i name="NELECT">     44.00000000</i>
   <separator name="electronic smearing" >
    <i type="int" name="ISMEAR">     1</i>
    <i name="SIGMA">      0.10000000</i>
   </separator>
   <separator name="electronic projectors" >
    <i type="logical" name="LREAL"> F  </i>
    <v name="ROPT">      0.00000000      0.00000000      0.00000000</v>
    <i type="int" name="LMAXPAW">  -100</i>
    <i type="int" name="LMAXMIX">     2</i>
   </separator>
   <separator name="electronic startup" >
    <i type="int" name="ISTART">     0</i>
    <i type="int" name="ICHARG">     2</i>
    <i type="int" name="INIWAV">     1</i>
   </separator>
   <separator name="electronic spin" >
    <i type="int" name="ISPIN">     2</i>
    <i type="logical" name="LNONCOLLINEAR"> F  </i>
    <v name="MAGMOM">      1.00000000      1.00000000      1.00000000      1.00000000</v>
    <i name="NUPDOWN">     -1.00000000</i>
    <i type="logical" name="LSORBIT"> F  </i>
    <v name="SAXIS">      0.00000000      0.00000000      1.00000000</v>
    <i type="logical" name="LSPIRAL"> F  </i>
    <v name="QSPIRAL">      0.00000000      0.00000000      0.00000000</v>
    <i type="logical" name="LZEROZ"> F  </i>
   </separator>
   <separator name="electronic exchange-correlation" >
    <i type="string" name="GGA">--</i>
    <i type="int" name="VOSKOWN">     0</i>
    <i type="logical" name="LASPH"> F  </i>
    <i type="logical" name="LMETAGGA"> F  </i>
    <i type="string" name="GGA2">--</i>
   </separator>
   <separator name="electronic convergence" >
    <i type="int" name="NELM">    60</i>
    <i type="int" name="NELMDL">     0</i>
    <i type="int" name="NELMIN">     2</i>
    <i name="ENINI">    980.00000000</i>
    <separator name="electronic convergence detail" >
     <i type="logical" name="LDIAG"> T  </i>
     <i name="WEIMIN">      0.00100000</i>
     <i name="EBREAK">      0.00000033</i>
     <i name="DEPER">      0.30000000</i>
     <i type="int" name="NRMM">     4</i>
     <i name="TIME">      0.10000000</i>
    </separator>
   </separator>
   <separator name="electronic mixer" >
    <i name="AMIX">      0.40000000</i>
    <i name="BMIX">      1.00000000</i>
    <i name="AMIN">      0.10000000</i>
    <i name="AMIX_MAG">      1.60000000</i>
    <i name="BMIX_MAG">      1.00000000</i>
    <separator name="electronic mixer details" >
     <i type="int" name="IMIX">     4</i>
     <i type="int" name="MAXMIX">   -45</i>
     <i name="WC">    100.00000000</i>
     <i type="int" name="INIMIX">     1</i>
     <i type="int" name="MIXPRE">     1</i>
     <i type="int" name="MREMOVE">     5</i>
    </separator>
   </separator>
   <separator name="electronic dipolcorrection" >
    <i type="int" name="IDIPOL">     0</i>
    <i type="logical" name="LDIPOL"> F  </i>
    <v name="DIPOL">   -100.00000000</v>
    <i name="EFIELD">      0.00000000</i>
   </separator>
  </separator>
  <separator name="grids" >
   <i type="int" name="NGX">    36</i>
   <i type="int" name="NGY">    50</i>
   <i type="int" name="NGZ">    70</i>
   <i type="int" name="NGXF">    48</i>
   <i type="int" name="NGYF">    70</i>
   <i type="int" name="NGZF">    96</i>
   <i type="logical" name="ADDGRID"> F  </i>
  </separator>
  <separator name="ionic" >
   <i type="int" name="NSW">    51</i>
   <i type="int" name="IBRION">     2</i>
   <i type="int" name="ISIF">     3</i>
   <i name="PSTRESS">      0.00000000</i>
   <i name="EDIFFG">      0.00100000</i>
   <i type="int" name="NFREE">     1</i>
   <i name="POTIM">      0.50000000</i>
   <i name="SMASS">     -3.00000000</i>
  </separator>
  <separator name="ionic md" >
   <i name="TEBEG">      0.00010000</i>
   <i name="TEEND">      0.00010000</i>
   <i type="int" name="NBLOCK">     1</i>
   <i type="int" name="KBLOCK">    51</i>
   <i type="int" name="NPACO">   256</i>
   <i name="APACO">     16.00000000</i>
  </separator>
  <separator name="symmetry" >
   <i type="int" name="ISYM">     2</i>
   <i name="SYMPREC">      0.00001000</i>
  </separator>
  <separator name="dos" >
   <i type="logical" name="LORBIT"> F  </i>
   <v name="RWIGS">     -1.00000000     -1.00000000     -1.00000000</v>
   <i type="int" name="NEDOS">   301</i>
   <i name="EMIN">     10.00000000</i>
   <i name="EMAX">    -10.00000000</i>
  </separator>
  <separator name="writing" >
   <i type="int" name="NWRITE">     2</i>
   <i type="logical" name="LWAVE"> F  </i>
   <i type="logical" name="LCHARG"> T  </i>
   <i type="logical" name="LPARD"> F  </i>
   <i type="logical" name="LVTOT"> F  </i>
   <i type="logical" name="LELF"> F  </i>
   <i type="logical" name="LOPTICS"> F  </i>
   <v name="STM">      0.00000000      0.00000000      0.00000000      0.00000000      0.00000000</v>
  </separator>
  <separator name="performance" >
   <i type="int" name="NPAR">     2</i>
   <i type="int" name="NSIM">     4</i>
   <i type="int" name="NBLK">   256</i>
   <i type="logical" name="LPLANE"> T  </i>
   <i type="logical" name="LCRITICAL_MEM"> F  </i>
   <i type="logical" name="LSCALAPACK"> F  </i>
   <i type="logical" name="LSCALU"> F  </i>
   <i type="logical" name="LASYNC"> F  </i>
  </separator>
  <separator name="miscellaneous" >
   <i type="int" name="IDIOT">     3</i>
   <i type="logical" name="LMUSIC"> F  </i>
   <v name="POMASS">     72.61000000     22.99000000     65.39000000</v>
   <i type="logical" name="LCORR"> T  </i>
  </separator>
  <i type="logical" name="LREAL_COMPAT"> F  </i>
  <i type="logical" name="GGA_COMPAT"> T  </i>
  <i type="logical" name="LBERRY"> F  </i>
  <i type="int" name="ICORELEVEL">     0</i>
  <i type="logical" name="LDAU"> F  </i>
  <i type="int" name="I_CONSTRAINED_M">     0</i>
 </parameters>
 <atominfo>
  <atoms>       4</atoms>
  <types>       3</types>
  <array name="atoms" >
   <dimension dim="1">ion</dimension>
   <field type="string">element</field>
   <field type="int">atomtype</field>
   <set>
    <rc><c>Ge</c><c>   1</c></rc>
    <rc><c>Na</c><c>   2</c></rc>
    <rc><c>Na</c><c>   2</c></rc>
    <rc><c>Zn</c><c>   3</c></rc>
   </set>
  </array>
  <array name="atomtypes" >
   <dimension dim="1">type</dimension>
   <field type="int">atomspertype</field>
   <field type="string">element</field>
   <field>mass</field>
   <field>valence</field>
   <field type="string">pseudopotential</field>
   <set>
    <rc><c>   1</c><c>Ge</c><c>     72.61000000</c><c>     14.00000000</c><c> PAW_PBE Ge_h 09Apr2002                 </c></rc>
    <rc><c>   2</c><c>Na</c><c>     22.99000000</c><c>      9.00000000</c><c> PAW_PBE Na_sv 28Sep2000                </c></rc>
    <rc><c>   1</c><c>Zn</c><c>     65.39000000</c><c>     12.00000000</c><c> PAW_PBE Zn 06Sep2000                   </c></rc>
   </set>
  </array>
 </atominfo>
 <structure name="initialpos" >
  <crystal>
   <varray name="basis" >
    <v>       3.42475670       0.00000000       0.00000000 </v>
    <v>       0.00000000       4.84333737       0.00000000 </v>
    <v>       0.00000000       0.00000000       6.84951339 </v>
   </varray>
   <i name="volume">    113.61460534</i>
   <varray name="rec_basis" >
    <v>       0.29199155       0.00000000       0.00000000 </v>
    <v>       0.00000000       0.20646920       0.00000000 </v>
    <v>       0.00000000       0.00000000       0.14599577 </v>
   </varray>
  </crystal>
  <varray name="positions" >
   <v>       0.50000000       0.50000000       0.75000000 </v>
   <v>       0.00000000       0.00000000       0.00000000 </v>
   <v>       0.50000000       0.50000000       0.25000000 </v>
   <v>       0.00000000       0.00000000       0.50000000 </v>
  </varray>
 </structure>
 <calculation>
  <scstep>
   <time name="dav">  124.32  124.81</time>
   <time name="total">  124.53  125.14</time>
   <energy>
    <i name="alphaZ">    107.84026176</i>
    <i name="ewald">  -3339.54076102</i>
    <i name="hartreedc">  -2682.92503871</i>
    <i name="XCdc">    206.99800392</i>
    <i name="pawpsdc">   4760.05862702</i>
    <i name="pawaedc">  -5258.35772596</i>
    <i name="eentropy">     -0.00043468</i>
    <i name="bandstr">      8.85762255</i>
    <i name="atom">   6961.00175798</i>
    <i name="e_fr_energy">    763.93231285</i>
    <i name="e_wo_entrp">    763.93274753</i>
    <i name="e_0_energy">    763.93245775</i>
   </energy>
  </scstep>
  <scstep>
   <time name="dav">  102.95  103.11</time>
   <time name="total">  103.00  103.26</time>
   <energy>
    <i name="e_fr_energy">    114.03312118</i>
    <i name="e_wo_entrp">    114.03308661</i>
    <i name="e_0_energy">    114.03310966</i>
   </energy>
  </scstep>
  <scstep>
   <time name="dav">  121.23  121.42</time>
   <time name="total">  121.29  121.48</time>
   <energy>
    <i name="e_fr_energy">     -0.11853056</i>
    <i name="e_wo_entrp">     -0.11790854</i>
    <i name="e_0_energy">     -0.11832322</i>
   </energy>
  </scstep>
  <scstep>
   <time name="dav">  123.31  123.59</time>
   <time name="total">  123.36  123.74</time>
   <energy>
    <i name="e_fr_energy">     -6.41043119</i>
    <i name="e_wo_entrp">     -6.41006497</i>
    <i name="e_0_energy">     -6.41030911</i>
   </energy>
  </scstep>
  <scstep>
   <time name="dav">  126.08  126.29</time>
   <time name="total">  128.82  129.04</time>
   <energy>
    <i name="e_fr_energy">     -6.57738061</i>
    <i name="e_wo_entrp">     -6.57703841</i>
    <i name="e_0_energy">     -6.57726654</i>
   </energy>
  </scstep>
  <scstep>
   <time name="diag">   20.47   20.56</time>
   <time name="diis">   74.97   75.07</time>
   <time name="orth">    1.38    1.38</time>
   <time name="total">   99.64  100.06</time>
   <energy>
    <i name="e_fr_energy">     -7.08959797</i>
    <i name="e_wo_entrp">     -7.08982317</i>
    <i name="e_0_energy">     -7.08967303</i>
   </energy>
  </scstep>
  <scstep>
   <time name="diag">   18.66   18.71</time>
   <time name="diis">   75.23   75.46</time>
   <time name="orth">    1.37    1.37</time>
   <time name="total">   98.06   98.35</time>
   <energy>
    <i name="e_fr_energy">     -7.42858025</i>
    <i name="e_wo_entrp">     -7.42842945</i>
    <i name="e_0_energy">     -7.42852998</i>
   </energy>
  </scstep>
  <scstep>
   <time name="diag">   18.58   18.61</time>
   <time name="diis">   78.28   78.39</time>
   <time name="orth">    1.39    1.39</time>
   <time name="total">  101.06  101.20</time>
   <energy>
    <i name="e_fr_energy">     -7.47728198</i>
    <i name="e_wo_entrp">     -7.47689887</i>
    <i name="e_0_energy">     -7.47715428</i>
   </energy>
  </scstep>
  <scstep>
   <time name="diag">   18.87   18.93</time>
   <time name="diis">   76.45   76.55</time>
   <time name="orth">    1.39    1.39</time>
   <time name="total">   99.52   99.69</time>
   <energy>
    <i name="e_fr_energy">     -7.48594660</i>
    <i name="e_wo_entrp">     -7.48608428</i>
    <i name="e_0_energy">     -7.48599249</i>
   </energy>
  </scstep>
  <scstep>
   <time name="diag">   18.63   18.65</time>
   <time name="diis">   75.05   75.24</time>
   <time name="orth">    1.40    1.40</time>
   <time name="total">   97.89   98.13</time>
   <energy>
    <i name="e_fr_energy">     -7.48690275</i>
    <i name="e_wo_entrp">     -7.48712431</i>
    <i name="e_0_energy">     -7.48697660</i>
   </energy>
  </scstep>
  <scstep>
   <time name="diag">   18.80   18.82</time>
   <time name="diis">   69.14   69.25</time>
   <time name="orth">    1.39    1.39</time>
   <time name="total">   92.14   92.27</time>
   <energy>
    <i name="e_fr_energy">     -7.48713903</i>
    <i name="e_wo_entrp">     -7.48736127</i>
    <i name="e_0_energy">     -7.48721311</i>
   </energy>
  </scstep>
  <scstep>
   <time name="diag">   19.85   20.08</time>
   <time name="diis">   66.15   66.59</time>
   <time name="orth">    1.40    1.40</time>
   <time name="total">   87.50   88.38</time>
   <energy>
    <i name="alphaZ">    107.84026176</i>
    <i name="ewald">  -3339.54076102</i>
    <i name="hartreedc">  -2667.10863839</i>
    <i name="XCdc">    206.09365167</i>
    <i name="pawpsdc">   4750.93735048</i>
    <i name="pawaedc">  -5249.78819781</i>
    <i name="eentropy">      0.00022095</i>
    <i name="bandstr">   -776.92283806</i>
    <i name="atom">   6961.00175798</i>
    <i name="e_fr_energy">     -7.48719245</i>
    <i name="e_wo_entrp">     -7.48741340</i>
    <i name="e_0_energy">     -7.48726610</i>
   </energy>
  </scstep>
  <structure>
   <crystal>
    <varray name="basis" >
     <v>       3.42475670       0.00000000       0.00000000 </v>
     <v>       0.00000000       4.84333737       0.00000000 </v>
     <v>       0.00000000       0.00000000       6.84951339 </v>
    </varray>
    <i name="volume">    113.61460534</i>
    <varray name="rec_basis" >
     <v>       0.29199155       0.00000000       0.00000000 </v>
     <v>       0.00000000       0.20646920       0.00000000 </v>
     <v>       0.00000000       0.00000000       0.14599577 </v>
    </varray>
   </crystal>
   <varray name="positions" >
    <v>       0.50000000       0.50000000       0.75000000 </v>
    <v>       0.00000000       0.00000000       0.00000000 </v>
    <v>       0.50000000       0.50000000       0.25000000 </v>
    <v>       0.00000000       0.00000000       0.50000000 </v>
   </varray>
  </structure>
  <varray name="forces" >
   <v>       0.00000000       0.00000000      -0.22168637 </v>
   <v>       0.00000000       0.00000000      -0.44599983 </v>
   <v>       0.00000000       0.00000000       0.37329191 </v>
   <v>       0.00000000       0.00000000       0.29439429 </v>
  </varray>
  <varray name="stress" >
   <v>     -37.47065266       0.00000000       0.00000000 </v>
   <v>       0.00000000     -39.93841059       0.00000000 </v>
   <v>       0.00000000       0.00000000     -49.38959405 </v>
  </varray>
  <energy>
   <i name="e_fr_energy">     -7.48719245</i>
   <i name="e_wo_entrp">     -7.48726610</i>
   <i name="e_0_energy">      0.00022095</i>
  </energy>
 </calculation>
 <calculation>
  <scstep>
   <time name="dav">  140.85  141.34</time>
   <time name="total">  143.64  144.13</time>
   <energy>
    <i name="alphaZ">    120.43809369</i>
    <i name="ewald">  -3460.82757814</i>
    <i name="hartreedc">  -2771.04032046</i>
    <i name="XCdc">    215.32446244</i>
    <i name="pawpsdc">   4751.04651467</i>
    <i name="pawaedc">  -5249.88929826</i>
    <i name="eentropy">     -0.00001598</i>
    <i name="bandstr">   -581.24756140</i>
    <i name="atom">   6961.00175798</i>
    <i name="e_fr_energy">    -15.19394546</i>
    <i name="e_wo_entrp">    -15.19392948</i>
    <i name="e_0_energy">    -15.19394014</i>
   </energy>
  </scstep>
  <scstep>
   <time name="diag">   18.65   18.68</time>
   <time name="diis">   74.57   75.05</time>
   <time name="orth">    1.39    1.39</time>
   <time name="total">   97.40   97.91</time>
   <energy>
    <i name="e_fr_energy">     -9.02702364</i>
    <i name="e_wo_entrp">     -9.02684986</i>
    <i name="e_0_energy">     -9.02696572</i>
   </energy>
  </scstep>
  <scstep>
   <time name="diag">   18.78   18.81</time>
   <time name="diis">   74.41   74.54</time>
   <time name="orth">    1.39    1.39</time>
   <time name="total">   97.35   97.51</time>
   <energy>
    <i name="e_fr_energy">     -8.03160064</i>
    <i name="e_wo_entrp">     -8.03205373</i>
    <i name="e_0_energy">     -8.03175167</i>
   </energy>
  </scstep>
  <scstep>
   <time name="diag">   18.64   18.68</time>
   <time name="diis">   80.01   80.16</time>
   <time name="orth">    1.39    1.40</time>
   <time name="total">  102.96  103.19</time>
   <energy>
    <i name="e_fr_energy">     -7.82537894</i>
    <i name="e_wo_entrp">     -7.82584206</i>
    <i name="e_0_energy">     -7.82553331</i>
   </energy>
  </scstep>
  <scstep>
   <time name="diag">   18.66   18.68</time>
   <time name="diis">   78.35   78.48</time>
   <time name="orth">    1.31    1.32</time>
   <time name="total">  101.14  101.34</time>
   <energy>
    <i name="e_fr_energy">     -7.79415999</i>
    <i name="e_wo_entrp">     -7.79459627</i>
    <i name="e_0_energy">     -7.79430542</i>
   </energy>
  </scstep>
  <scstep>
   <time name="diag">   18.76   18.80</time>
   <time name="diis">   78.44   78.60</time>
   <time name="orth">    1.42    1.42</time>
   <time name="total">  101.68  101.91</time>
   <energy>
    <i name="e_fr_energy">     -7.79349205</i>
    <i name="e_wo_entrp">     -7.79389199</i>
    <i name="e_0_energy">     -7.79362536</i>
   </energy>
  </scstep>
  <scstep>
   <time name="diag">   18.86   18.88</time>
   <time name="diis">   83.50   83.71</time>
   <time name="orth">    1.41    1.41</time>
   <time name="total">  106.55  106.80</time>
   <energy>
    <i name="e_fr_energy">     -7.79396509</i>
    <i name="e_wo_entrp">     -7.79435705</i>
    <i name="e_0_energy">     -7.79409574</i>
   </energy>
  </scstep>
  <scstep>
   <time name="diag">   19.12   19.23</time>
   <time name="diis">   75.82   76.01</time>
   <time name="orth">    1.41    1.41</time>
   <time name="total">   99.16  100.11</time>
   <energy>
    <i name="e_fr_energy">     -7.79411768</i>
    <i name="e_wo_entrp">     -7.79451282</i>
    <i name="e_0_energy">     -7.79424940</i>
   </energy>
  </scstep>
  <scstep>
   <time name="diag">   18.79   18.83</time>
   <time name="diis">   71.27   71.80</time>
   <time name="orth">    1.40    1.41</time>
   <time name="total">   91.57   92.14</time>
   <energy>
    <i name="alphaZ">    120.43809369</i>
    <i name="ewald">  -3460.82757814</i>
    <i name="hartreedc">  -2583.35039395</i>
    <i name="XCdc">    206.53904080</i>
    <i name="pawpsdc">   4756.76455890</i>
    <i name="pawaedc">  -5255.82743626</i>
    <i name="eentropy">      0.00039418</i>
    <i name="bandstr">   -752.53260466</i>
    <i name="atom">   6961.00175798</i>
    <i name="e_fr_energy">     -7.79416746</i>
    <i name="e_wo_entrp">     -7.79456164</i>
    <i name="e_0_energy">     -7.79429885</i>
   </energy>
  </scstep>
  <structure>
   <crystal>
    <varray name="basis" >
     <v>       3.31500386       0.00000000       0.00000000 </v>
     <v>       0.00000000       4.67790127       0.00000000 </v>
     <v>       0.00000000       0.00000000       6.56018573 </v>
    </varray>
    <i name="volume">    101.73051071</i>
    <varray name="rec_basis" >
     <v>       0.30165877       0.00000000       0.00000000 </v>
     <v>       0.00000000       0.21377108       0.00000000 </v>
     <v>       0.00000000       0.00000000       0.15243471 </v>
    </varray>
   </crystal>
   <varray name="positions" >
    <v>       0.50000000       0.50000000       0.74843861 </v>
    <v>       0.00000000       0.00000000      -0.00314128 </v>
    <v>       0.50000000       0.50000000       0.25262918 </v>
    <v>       0.00000000       0.00000000       0.50207348 </v>
   </varray>
  </structure>
  <varray name="forces" >
   <v>       0.00000000       0.00000000      -0.30054307 </v>
   <v>       0.00000000       0.00000000      -0.39706341 </v>
   <v>       0.00000000       0.00000000       0.37570382 </v>
   <v>       0.00000000       0.00000000       0.32190266 </v>
  </varray>
  <varray name="stress" >
   <v>     -30.55287116       0.00000000       0.00000000 </v>
   <v>       0.00000000     -31.87118990       0.00000000 </v>
   <v>       0.00000000       0.00000000     -37.12164037 </v>
  </varray>
  <energy>
   <i name="e_fr_energy">     -7.79416746</i>
   <i name="e_wo_entrp">     -7.79429885</i>
   <i name="e_0_energy">      0.00039418</i>
  </energy>
 </calculation>
 <calculation>
  <scstep>
   <time name="dav">  152.15  152.49</time>
   <time name="total">  155.12  155.47</time>
   <energy>
    <i name="alphaZ">    145.48425487</i>
    <i name="ewald">  -3677.58132713</i>
    <i name="hartreedc">  -2758.80353694</i>
    <i name="XCdc">    222.60168298</i>
    <i name="pawpsdc">   4756.68413391</i>
    <i name="pawaedc">  -5255.71903199</i>
    <i name="eentropy">     -0.00036601</i>
    <i name="bandstr">   -425.94398620</i>
    <i name="atom">   6961.00175798</i>
    <i name="e_fr_energy">    -32.27641853</i>
    <i name="e_wo_entrp">    -32.27605252</i>
    <i name="e_0_energy">    -32.27629652</i>
   </energy>
  </scstep>
  <scstep>
   <time name="diag">   18.61   18.63</time>
   <time name="diis">   75.56   75.69</time>
   <time name="orth">    1.42    1.42</time>
   <time name="total">   98.36   98.52</time>
   <energy>
    <i name="e_fr_energy">    -20.62595613</i>
    <i name="e_wo_entrp">    -20.62607519</i>
    <i name="e_0_energy">    -20.62599582</i>
   </energy>
  </scstep>
  <scstep>
   <time name="diag">   18.80   18.90</time>
   <time name="diis">   74.75   74.85</time>
   <time name="orth">    1.40    1.40</time>
   <time name="total">   97.70   97.90</time>
   <energy>
    <i name="e_fr_energy">     -9.25668760</i>
    <i name="e_wo_entrp">     -9.25692892</i>
    <i name="e_0_energy">     -9.25676804</i>
   </energy>
  </scstep>
  <scstep>
   <time name="diag">   18.83   18.85</time>
   <time name="diis">   78.14   78.40</time>
   <time name="orth">    1.40    1.40</time>
   <time name="total">  101.10  101.39</time>
   <energy>
    <i name="e_fr_energy">     -8.27805491</i>
    <i name="e_wo_entrp">     -8.27832202</i>
    <i name="e_0_energy">     -8.27814395</i>
   </energy>
  </scstep>
  <scstep>
   <time name="diag">   18.84   18.87</time>
   <time name="diis">   81.94   82.06</time>
   <time name="orth">    1.43    1.43</time>
   <time name="total">  104.93  105.29</time>
   <energy>
    <i name="e_fr_energy">     -7.98894784</i>
    <i name="e_wo_entrp">     -7.98870046</i>
    <i name="e_0_energy">     -7.98886538</i>
   </energy>
  </scstep>
  <scstep>
   <time name="diag">   18.63   18.66</time>
   <time name="diis">   79.87   80.31</time>
   <time name="orth">    1.41    1.41</time>
   <time name="total">  102.64  103.12</time>
   <energy>
    <i name="e_fr_energy">     -7.98476660</i>
    <i name="e_wo_entrp">     -7.98442605</i>
    <i name="e_0_energy">     -7.98465308</i>
   </energy>
  </scstep>
  <scstep>
   <time name="diag">   18.76   18.79</time>
   <time name="diis">   81.38   81.77</time>
   <time name="orth">    1.41    1.41</time>
   <time name="total">  104.27  104.71</time>
   <energy>
    <i name="e_fr_energy">     -7.98592011</i>
    <i name="e_wo_entrp">     -7.98558290</i>
    <i name="e_0_energy">     -7.98580771</i>
   </energy>
  </scstep>
  <scstep>
   <time name="diag">   18.72   18.75</time>
   <time name="diis">   81.98   82.18</time>
   <time name="orth">    1.41    1.41</time>
   <time name="total">  104.83  105.07</time>
   <energy>
    <i name="e_fr_energy">     -7.98623850</i>
    <i name="e_wo_entrp">     -7.98586858</i>
    <i name="e_0_energy">     -7.98611519</i>
   </energy>
  </scstep>
  <scstep>
   <time name="diag">   18.91   19.17</time>
   <time name="diis">   78.92   79.06</time>
   <time name="orth">    1.41    1.41</time>
   <time name="total">  101.97  102.37</time>
   <energy>
    <i name="e_fr_energy">     -7.98650211</i>
    <i name="e_wo_entrp">     -7.98614112</i>
    <i name="e_0_energy">     -7.98638178</i>
   </energy>
  </scstep>
  <scstep>
   <time name="diag">   18.81   18.85</time>
   <time name="diis">   75.13   75.46</time>
   <time name="orth">    1.40    1.41</time>
   <time name="total">   95.44   96.02</time>
   <energy>
    <i name="alphaZ">    145.48425487</i>
    <i name="ewald">  -3677.58132713</i>
    <i name="hartreedc">  -2438.42343407</i>
    <i name="XCdc">    207.42762026</i>
    <i name="pawpsdc">   4772.24225279</i>
    <i name="pawaedc">  -5271.87440586</i>
    <i name="eentropy">     -0.00036102</i>
    <i name="bandstr">   -706.26295208</i>
    <i name="atom">   6961.00175798</i>
    <i name="e_fr_energy">     -7.98659427</i>
    <i name="e_wo_entrp">     -7.98623324</i>
    <i name="e_0_energy">     -7.98647392</i>
   </energy>
  </scstep>
  <structure>
   <crystal>
    <varray name="basis" >
     <v>       3.13658436       0.00000000       0.00000000 </v>
     <v>       0.00000000       4.40896038       0.00000000 </v>
     <v>       0.00000000       0.00000000       6.08984075 </v>
    </varray>
    <i name="volume">     84.21687138</i>
    <varray name="rec_basis" >
     <v>       0.31881814       0.00000000       0.00000000 </v>
     <v>       0.00000000       0.22681084       0.00000000 </v>
     <v>       0.00000000       0.00000000       0.16420791 </v>
    </varray>
   </crystal>
   <varray name="positions" >
    <v>       0.50000000       0.50000000       0.74578840 </v>
    <v>       0.00000000       0.00000000      -0.00847311 </v>
    <v>       0.50000000       0.50000000       0.25709180 </v>
    <v>       0.00000000       0.00000000       0.50559290 </v>
   </varray>
  </structure>
  <varray name="forces" >
   <v>       0.00000000       0.00000000      -0.34029929 </v>
   <v>       0.00000000       0.00000000      -0.17536183 </v>
   <v>       0.00000000       0.00000000       0.24368885 </v>
   <v>       0.00000000       0.00000000       0.27197227 </v>
  </varray>
  <varray name="stress" >
   <v>       1.81509176       0.00000000       0.00000000 </v>
   <v>       0.00000000       3.87679993       0.00000000 </v>
   <v>       0.00000000       0.00000000      17.82639674 </v>
  </varray>
  <energy>
   <i name="e_fr_energy">     -7.98659427</i>
   <i name="e_wo_entrp">     -7.98647392</i>
   <i name="e_0_energy">     -0.00036102</i>
  </energy>
 </calculation>
 <calculation>
  <scstep>
   <time name="dav">  141.80  142.04</time>
   <time name="total">  144.53  144.77</time>
   <energy>
    <i name="alphaZ">    142.18904694</i>
    <i name="ewald">  -3650.71493511</i>
    <i name="hartreedc">  -2418.83644385</i>
    <i name="XCdc">    205.55613959</i>
    <i name="pawpsdc">   4772.09681877</i>
    <i name="pawaedc">  -5271.69031492</i>
    <i name="eentropy">     -0.00008892</i>
    <i name="bandstr">   -747.87016040</i>
    <i name="atom">   6961.00175798</i>
    <i name="e_fr_energy">     -8.26817991</i>
    <i name="e_wo_entrp">     -8.26809100</i>
    <i name="e_0_energy">     -8.26815027</i>
   </energy>
  </scstep>
  <scstep>
   <time name="diag">   19.09   19.19</time>
   <time name="diis">   74.11   74.22</time>
   <time name="orth">    1.41    1.41</time>
   <time name="total">   97.55   98.41</time>
   <energy>
    <i name="e_fr_energy">     -8.03573616</i>
    <i name="e_wo_entrp">     -8.03562113</i>
    <i name="e_0_energy">     -8.03569781</i>
   </energy>
  </scstep>
  <scstep>
   <time name="diag">   20.20   20.25</time>
   <time name="diis">   76.79   76.96</time>
   <time name="orth">    1.42    1.42</time>
   <time name="total">  101.13  102.13</time>
   <energy>
    <i name="e_fr_energy">     -7.99869670</i>
    <i name="e_wo_entrp">     -7.99850724</i>
    <i name="e_0_energy">     -7.99863355</i>
   </energy>
  </scstep>
  <scstep>
   <time name="diag">   18.74   18.77</time>
   <time name="diis">   80.09   80.22</time>
   <time name="orth">    1.38    1.38</time>
   <time name="total">  102.93  103.38</time>
   <energy>
    <i name="e_fr_energy">     -7.99349989</i>
    <i name="e_wo_entrp">     -7.99330054</i>
    <i name="e_0_energy">     -7.99343344</i>
   </energy>
  </scstep>
  <scstep>
   <time name="diag">   18.55   18.59</time>
   <time name="diis">   73.98   74.17</time>
   <time name="orth">    1.55    1.62</time>
   <time name="total">   96.79   97.24</time>
   <energy>
    <i name="e_fr_energy">     -7.99227225</i>
    <i name="e_wo_entrp">     -7.99207723</i>
    <i name="e_0_energy">     -7.99220724</i>
   </energy>
  </scstep>
  <scstep>
   <time name="diag">   18.60   18.63</time>
   <time name="diis">   66.61   67.03</time>
   <time name="orth">    1.54    1.54</time>
   <time name="total">   86.86   87.73</time>
   <energy>
    <i name="alphaZ">    142.18904694</i>
    <i name="ewald">  -3650.71493511</i>
    <i name="hartreedc">  -2456.10607429</i>
    <i name="XCdc">    207.31386844</i>
    <i name="pawpsdc">   4769.50185217</i>
    <i name="pawaedc">  -5268.98208231</i>
    <i name="eentropy">     -0.00019053</i>
    <i name="bandstr">   -712.19546856</i>
    <i name="atom">   6961.00175798</i>
    <i name="e_fr_energy">     -7.99222528</i>
    <i name="e_wo_entrp">     -7.99203474</i>
    <i name="e_0_energy">     -7.99216176</i>
   </energy>
  </scstep>
  <structure>
   <crystal>
    <varray name="basis" >
     <v>       3.15761585       0.00000000       0.00000000 </v>
     <v>       0.00000000       4.44066224       0.00000000 </v>
     <v>       0.00000000       0.00000000       6.14528345 </v>
    </varray>
    <i name="volume">     86.16858361</i>
    <varray name="rec_basis" >
     <v>       0.31669463       0.00000000       0.00000000 </v>
     <v>       0.00000000       0.22519164       0.00000000 </v>
     <v>       0.00000000       0.00000000       0.16272642 </v>
    </varray>
   </crystal>
   <varray name="positions" >
    <v>       0.50000000       0.50000000       0.74612493 </v>
    <v>       0.00000000       0.00000000      -0.00779607 </v>
    <v>       0.50000000       0.50000000       0.25652513 </v>
    <v>       0.00000000       0.00000000       0.50514601 </v>
   </varray>
  </structure>
  <varray name="forces" >
   <v>       0.00000000       0.00000000      -0.35236397 </v>
   <v>       0.00000000       0.00000000      -0.23336203 </v>
   <v>       0.00000000       0.00000000       0.29316362 </v>
   <v>       0.00000000       0.00000000       0.29256239 </v>
  </varray>
  <varray name="stress" >
   <v>       0.35676724       0.00000000       0.00000000 </v>
   <v>       0.00000000       1.64953802       0.00000000 </v>
   <v>       0.00000000       0.00000000      12.25250463 </v>
  </varray>
  <energy>
   <i name="e_fr_energy">     -7.99222528</i>
   <i name="e_wo_entrp">     -7.99216176</i>
   <i name="e_0_energy">     -0.00019053</i>
  </energy>
 </calculation>
 <calculation>
  <scstep>
   <time name="dav">  120.35  120.57</time>
   <time name="total">  123.10  123.33</time>
   <energy>
    <i name="alphaZ">    142.49672800</i>
    <i name="ewald">  -3643.35621453</i>
    <i name="hartreedc">  -2467.56235382</i>
    <i name="XCdc">    207.50605611</i>
    <i name="pawpsdc">   4769.65485752</i>
    <i name="pawaedc">  -5269.16358060</i>
    <i name="eentropy">     -0.00031487</i>
    <i name="bandstr">   -708.59106562</i>
    <i name="atom">   6961.00175798</i>
    <i name="e_fr_energy">     -8.01412982</i>
    <i name="e_wo_entrp">     -8.01381495</i>
    <i name="e_0_energy">     -8.01402487</i>
   </energy>
  </scstep>
  <scstep>
   <time name="diag">   18.65   18.72</time>
   <time name="diis">   72.72   73.45</time>
   <time name="orth">    1.35    1.35</time>
   <time name="total">   95.46   96.56</time>
   <energy>
    <i name="e_fr_energy">     -8.02038837</i>
    <i name="e_wo_entrp">     -8.02005163</i>
    <i name="e_0_energy">     -8.02027612</i>
   </energy>
  </scstep>
  <scstep>
   <time name="diag">   18.56   18.58</time>
   <time name="diis">   78.34   78.44</time>
   <time name="orth">    1.35    1.35</time>
   <time name="total">  100.98  101.22</time>
   <energy>
    <i name="e_fr_energy">     -8.01557367</i>
    <i name="e_wo_entrp">     -8.01527013</i>
    <i name="e_0_energy">     -8.01547249</i>
   </energy>
  </scstep>
  <scstep>
   <time name="diag">   18.98   19.09</time>
   <time name="diis">   75.60   75.74</time>
   <time name="orth">    1.35    1.35</time>
   <time name="total">   98.67   98.93</time>
   <energy>
    <i name="e_fr_energy">     -8.01543165</i>
    <i name="e_wo_entrp">     -8.01511615</i>
    <i name="e_0_energy">     -8.01532649</i>
   </energy>
  </scstep>
  <scstep>
   <time name="diag">   18.82   18.85</time>
   <time name="diis">   65.73   65.85</time>
   <time name="orth">    1.55    1.55</time>
   <time name="total">   86.20   86.36</time>
   <energy>
    <i name="alphaZ">    142.49672800</i>
    <i name="ewald">  -3643.35621453</i>
    <i name="hartreedc">  -2464.48334128</i>
    <i name="XCdc">    207.34480750</i>
    <i name="pawpsdc">   4770.35601816</i>
    <i name="pawaedc">  -5269.88682300</i>
    <i name="eentropy">     -0.00032177</i>
    <i name="bandstr">   -711.48803397</i>
    <i name="atom">   6961.00175798</i>
    <i name="e_fr_energy">     -8.01542292</i>
    <i name="e_wo_entrp">     -8.01510116</i>
    <i name="e_0_energy">     -8.01531567</i>
   </energy>
  </scstep>
  <structure>
   <crystal>
    <varray name="basis" >
     <v>       3.14545540       0.00000000       0.00000000 </v>
     <v>       0.00000000       4.42713892       0.00000000 </v>
     <v>       0.00000000       0.00000000       6.17452459 </v>
    </varray>
    <i name="volume">     85.98252712</i>
    <varray name="rec_basis" >
     <v>       0.31791899       0.00000000       0.00000000 </v>
     <v>       0.00000000       0.22587952       0.00000000 </v>
     <v>       0.00000000       0.00000000       0.16195579 </v>
    </varray>
   </crystal>
   <varray name="positions" >
    <v>       0.50000000       0.50000000       0.74234008 </v>
    <v>       0.00000000       0.00000000      -0.01060675 </v>
    <v>       0.50000000       0.50000000       0.25986603 </v>
    <v>       0.00000000       0.00000000       0.50840064 </v>
   </varray>
  </structure>
  <varray name="forces" >
   <v>       0.00000000       0.00000000      -0.24131124 </v>
   <v>       0.00000000       0.00000000      -0.13942667 </v>
   <v>       0.00000000       0.00000000       0.16142651 </v>
   <v>       0.00000000       0.00000000       0.21931140 </v>
  </varray>
  <varray name="stress" >
   <v>      -2.33510461       0.00000000       0.00000000 </v>
   <v>       0.00000000      -4.12494942       0.00000000 </v>
   <v>       0.00000000       0.00000000       8.48968164 </v>
  </varray>
  <energy>
   <i name="e_fr_energy">     -8.01542292</i>
   <i name="e_wo_entrp">     -8.01531567</i>
   <i name="e_0_energy">     -0.00032177</i>
  </energy>
 </calculation>
 <calculation>
  <scstep>
   <time name="dav">  121.03  121.25</time>
   <time name="total">  123.77  123.99</time>
   <energy>
    <i name="alphaZ">    143.27462648</i>
    <i name="ewald">  -3619.06976063</i>
    <i name="hartreedc">  -2498.56660778</i>
    <i name="XCdc">    207.83844884</i>
    <i name="pawpsdc">   4770.29636882</i>
    <i name="pawaedc">  -5269.80984943</i>
    <i name="eentropy">     -0.00006506</i>
    <i name="bandstr">   -702.98837374</i>
    <i name="atom">   6961.00175798</i>
    <i name="e_fr_energy">     -8.02345453</i>
    <i name="e_wo_entrp">     -8.02338947</i>
    <i name="e_0_energy">     -8.02343284</i>
   </energy>
  </scstep>
  <scstep>
   <time name="diag">   18.77   18.80</time>
   <time name="diis">   74.13   74.34</time>
   <time name="orth">    1.34    1.35</time>
   <time name="total">   96.97   97.23</time>
   <energy>
    <i name="e_fr_energy">     -8.07556579</i>
    <i name="e_wo_entrp">     -8.07524186</i>
    <i name="e_0_energy">     -8.07545781</i>
   </energy>
  </scstep>
  <scstep>
   <time name="diag">   18.68   18.70</time>
   <time name="diis">   81.41   81.67</time>
   <time name="orth">    1.37    1.37</time>
   <time name="total">  104.19  104.48</time>
   <energy>
    <i name="e_fr_energy">     -8.04766042</i>
    <i name="e_wo_entrp">     -8.04712379</i>
    <i name="e_0_energy">     -8.04748154</i>
   </energy>
  </scstep>
  <scstep>
   <time name="diag">   18.63   18.65</time>
   <time name="diis">   78.87   79.38</time>
   <time name="orth">    1.36    1.37</time>
   <time name="total">  101.60  102.15</time>
   <energy>
    <i name="e_fr_energy">     -8.04680708</i>
    <i name="e_wo_entrp">     -8.04626240</i>
    <i name="e_0_energy">     -8.04662552</i>
   </energy>
  </scstep>
  <scstep>
   <time name="diag">   18.84   18.87</time>
   <time name="diis">   80.17   80.29</time>
   <time name="orth">    1.47    1.51</time>
   <time name="total">  100.58  100.78</time>
   <energy>
    <i name="alphaZ">    143.27462648</i>
    <i name="ewald">  -3619.06976063</i>
    <i name="hartreedc">  -2490.94366609</i>
    <i name="XCdc">    207.42300437</i>
    <i name="pawpsdc">   4772.32316424</i>
    <i name="pawaedc">  -5271.93695119</i>
    <i name="eentropy">     -0.00056273</i>
    <i name="bandstr">   -710.11840253</i>
    <i name="atom">   6961.00175798</i>
    <i name="e_fr_energy">     -8.04679011</i>
    <i name="e_wo_entrp">     -8.04622738</i>
    <i name="e_0_energy">     -8.04660253</i>
   </energy>
  </scstep>
  <structure>
   <crystal>
    <varray name="basis" >
     <v>       3.11592093       0.00000000       0.00000000 </v>
     <v>       0.00000000       4.39429441       0.00000000 </v>
     <v>       0.00000000       0.00000000       6.24554345 </v>
    </varray>
    <i name="volume">     85.51569166</i>
    <varray name="rec_basis" >
     <v>       0.32093241       0.00000000       0.00000000 </v>
     <v>       0.00000000       0.22756782       0.00000000 </v>
     <v>       0.00000000       0.00000000       0.16011417 </v>
    </varray>
   </crystal>
   <varray name="positions" >
    <v>       0.50000000       0.50000000       0.73319125 </v>
    <v>       0.00000000       0.00000000      -0.01740081 </v>
    <v>       0.50000000       0.50000000       0.26794173 </v>
    <v>       0.00000000       0.00000000       0.51626783 </v>
   </varray>
  </structure>
  <varray name="forces" >
   <v>       0.00000000       0.00000000      -0.03143562 </v>
   <v>       0.00000000       0.00000000       0.02050090 </v>
   <v>       0.00000000       0.00000000      -0.06057005 </v>
   <v>       0.00000000       0.00000000       0.07150477 </v>
  </varray>
  <varray name="stress" >
   <v>       6.00716243       0.00000000       0.00000000 </v>
   <v>       0.00000000      -1.86441333       0.00000000 </v>
   <v>       0.00000000       0.00000000      16.05715217 </v>
  </varray>
  <energy>
   <i name="e_fr_energy">     -8.04679011</i>
   <i name="e_wo_entrp">     -8.04660253</i>
   <i name="e_0_energy">     -0.00056273</i>
  </energy>
 </calculation>
 <calculation>
  <scstep>
   <time name="dav">  141.12  141.39</time>
   <time name="total">  143.86  144.13</time>
   <energy>
    <i name="alphaZ">    139.85964815</i>
    <i name="ewald">  -3582.50811478</i>
    <i name="hartreedc">  -2477.70072688</i>
    <i name="XCdc">    205.45838354</i>
    <i name="pawpsdc">   4772.36323770</i>
    <i name="pawaedc">  -5271.99192200</i>
    <i name="eentropy">     -0.00021850</i>
    <i name="bandstr">   -754.93472602</i>
    <i name="atom">   6961.00175798</i>
    <i name="e_fr_energy">     -8.45268082</i>
    <i name="e_wo_entrp">     -8.45246233</i>
    <i name="e_0_energy">     -8.45260799</i>
   </energy>
  </scstep>
  <scstep>
   <time name="diag">   18.61   18.65</time>
   <time name="diis">   74.85   75.02</time>
   <time name="orth">    1.39    1.39</time>
   <time name="total">   97.61   97.82</time>
   <energy>
    <i name="e_fr_energy">     -8.14153706</i>
    <i name="e_wo_entrp">     -8.14099037</i>
    <i name="e_0_energy">     -8.14135483</i>
   </energy>
  </scstep>
  <scstep>
   <time name="diag">   18.87   18.89</time>
   <time name="diis">   76.02   76.14</time>
   <time name="orth">    1.42    1.42</time>
   <time name="total">   99.21   99.37</time>
   <energy>
    <i name="e_fr_energy">     -8.07194358</i>
    <i name="e_wo_entrp">     -8.07122508</i>
    <i name="e_0_energy">     -8.07170408</i>
   </energy>
  </scstep>
  <scstep>
   <time name="diag">   18.61   18.64</time>
   <time name="diis">   78.27   78.38</time>
   <time name="orth">    1.39    1.39</time>
   <time name="total">  101.01  101.16</time>
   <energy>
    <i name="e_fr_energy">     -8.06252949</i>
    <i name="e_wo_entrp">     -8.06193287</i>
    <i name="e_0_energy">     -8.06233061</i>
   </energy>
  </scstep>
  <scstep>
   <time name="diag">   19.15   19.17</time>
   <time name="diis">   76.04   76.15</time>
   <time name="orth">    1.39    1.39</time>
   <time name="total">   99.31   99.46</time>
   <energy>
    <i name="e_fr_energy">     -8.06156539</i>
    <i name="e_wo_entrp">     -8.06097516</i>
    <i name="e_0_energy">     -8.06136864</i>
   </energy>
  </scstep>
  <scstep>
   <time name="diag">   18.80   18.83</time>
   <time name="diis">   70.04   70.18</time>
   <time name="orth">    1.38    1.39</time>
   <time name="total">   90.33   90.51</time>
   <energy>
    <i name="alphaZ">    139.85964815</i>
    <i name="ewald">  -3582.50811478</i>
    <i name="hartreedc">  -2517.79686164</i>
    <i name="XCdc">    207.30611576</i>
    <i name="pawpsdc">   4769.85091293</i>
    <i name="pawaedc">  -5269.41750515</i>
    <i name="eentropy">     -0.00059602</i>
    <i name="bandstr">   -716.35690328</i>
    <i name="atom">   6961.00175798</i>
    <i name="e_fr_energy">     -8.06154606</i>
    <i name="e_wo_entrp">     -8.06095004</i>
    <i name="e_0_energy">     -8.06134738</i>
   </energy>
  </scstep>
  <structure>
   <crystal>
    <varray name="basis" >
     <v>       3.13617086       0.00000000       0.00000000 </v>
     <v>       0.00000000       4.38110358       0.00000000 </v>
     <v>       0.00000000       0.00000000       6.37586965 </v>
    </varray>
    <i name="volume">     87.60374377</i>
    <varray name="rec_basis" >
     <v>       0.31886018       0.00000000       0.00000000 </v>
     <v>       0.00000000       0.22825299       0.00000000 </v>
     <v>       0.00000000       0.00000000       0.15684135 </v>
    </varray>
   </crystal>
   <varray name="positions" >
    <v>       0.50000000       0.50000000       0.73186217 </v>
    <v>       0.00000000       0.00000000      -0.01774030 </v>
    <v>       0.50000000       0.50000000       0.26781064 </v>
    <v>       0.00000000       0.00000000       0.51806749 </v>
   </varray>
  </structure>
  <varray name="forces" >
   <v>       0.00000000       0.00000000      -0.08032389 </v>
   <v>       0.00000000       0.00000000      -0.06985903 </v>
   <v>       0.00000000       0.00000000       0.05806768 </v>
   <v>       0.00000000       0.00000000       0.09211524 </v>
  </varray>
  <varray name="stress" >
   <v>       1.71997622       0.00000000       0.00000000 </v>
   <v>       0.00000000      -7.86582988       0.00000000 </v>
   <v>       0.00000000       0.00000000       3.57586386 </v>
  </varray>
  <energy>
   <i name="e_fr_energy">     -8.06154606</i>
   <i name="e_wo_entrp">     -8.06134738</i>
   <i name="e_0_energy">     -0.00059602</i>
  </energy>
 </calculation>
 <calculation>
  <scstep>
   <time name="dav">  138.87  139.11</time>
   <time name="total">  141.61  141.86</time>
   <energy>
    <i name="alphaZ">    137.96431150</i>
    <i name="ewald">  -3561.70704083</i>
    <i name="hartreedc">  -2510.49726398</i>
    <i name="XCdc">    206.19460925</i>
    <i name="pawpsdc">   4769.96444514</i>
    <i name="pawaedc">  -5269.53054941</i>
    <i name="eentropy">     -0.00046356</i>
    <i name="bandstr">   -741.58064794</i>
    <i name="atom">   6961.00175798</i>
    <i name="e_fr_energy">     -8.19084186</i>
    <i name="e_wo_entrp">     -8.19037831</i>
    <i name="e_0_energy">     -8.19068734</i>
   </energy>
  </scstep>
  <scstep>
   <time name="diag">   18.62   18.65</time>
   <time name="diis">   74.06   74.17</time>
   <time name="orth">    1.38    1.38</time>
   <time name="total">   96.81   96.96</time>
   <energy>
    <i name="e_fr_energy">     -8.09014954</i>
    <i name="e_wo_entrp">     -8.08978989</i>
    <i name="e_0_energy">     -8.09002966</i>
   </energy>
  </scstep>
  <scstep>
   <time name="diag">   19.99   20.03</time>
   <time name="diis">   75.31   75.43</time>
   <time name="orth">    1.39    1.39</time>
   <time name="total">   99.43   99.60</time>
   <energy>
    <i name="e_fr_energy">     -8.06797698</i>
    <i name="e_wo_entrp">     -8.06751002</i>
    <i name="e_0_energy">     -8.06782132</i>
   </energy>
  </scstep>
  <scstep>
   <time name="diag">   18.66   18.68</time>
   <time name="diis">   77.33   77.53</time>
   <time name="orth">    1.39    1.39</time>
   <time name="total">  100.14  100.37</time>
   <energy>
    <i name="e_fr_energy">     -8.06484747</i>
    <i name="e_wo_entrp">     -8.06446055</i>
    <i name="e_0_energy">     -8.06471850</i>
   </energy>
  </scstep>
  <scstep>
   <time name="diag">   18.62   18.64</time>
   <time name="diis">   73.79   73.99</time>
   <time name="orth">    1.40    1.40</time>
   <time name="total">   96.57   96.80</time>
   <energy>
    <i name="e_fr_energy">     -8.06452877</i>
    <i name="e_wo_entrp">     -8.06414469</i>
    <i name="e_0_energy">     -8.06440074</i>
   </energy>
  </scstep>
  <scstep>
   <time name="diag">   18.90   18.96</time>
   <time name="diis">   66.01   66.12</time>
   <time name="orth">    1.39    1.39</time>
   <time name="total">   86.40   86.58</time>
   <energy>
    <i name="alphaZ">    137.96431150</i>
    <i name="ewald">  -3561.70704083</i>
    <i name="hartreedc">  -2533.28468133</i>
    <i name="XCdc">    207.24511293</i>
    <i name="pawpsdc">   4768.66922336</i>
    <i name="pawaedc">  -5268.17933322</i>
    <i name="eentropy">     -0.00038887</i>
    <i name="bandstr">   -719.77348588</i>
    <i name="atom">   6961.00175798</i>
    <i name="e_fr_energy">     -8.06452437</i>
    <i name="e_wo_entrp">     -8.06413550</i>
    <i name="e_0_energy">     -8.06439474</i>
   </energy>
  </scstep>
  <structure>
   <crystal>
    <varray name="basis" >
     <v>       3.14780299       0.00000000       0.00000000 </v>
     <v>       0.00000000       4.37352640       0.00000000 </v>
     <v>       0.00000000       0.00000000       6.45073266 </v>
    </varray>
    <i name="volume">     88.80723317</i>
    <varray name="rec_basis" >
     <v>       0.31768189       0.00000000       0.00000000 </v>
     <v>       0.00000000       0.22864844       0.00000000 </v>
     <v>       0.00000000       0.00000000       0.15502115 </v>
    </varray>
   </crystal>
   <varray name="positions" >
    <v>       0.50000000       0.50000000       0.73111432 </v>
    <v>       0.00000000       0.00000000      -0.01793132 </v>
    <v>       0.50000000       0.50000000       0.26773687 </v>
    <v>       0.00000000       0.00000000       0.51908014 </v>
   </varray>
  </structure>
  <varray name="forces" >
   <v>       0.00000000       0.00000000      -0.11216364 </v>
   <v>       0.00000000       0.00000000      -0.10037903 </v>
   <v>       0.00000000       0.00000000       0.10107338 </v>
   <v>       0.00000000       0.00000000       0.11146930 </v>
  </varray>
  <varray name="stress" >
   <v>      -0.60682044       0.00000000       0.00000000 </v>
   <v>       0.00000000     -10.51005002       0.00000000 </v>
   <v>       0.00000000       0.00000000      -1.52453335 </v>
  </varray>
  <energy>
   <i name="e_fr_energy">     -8.06452437</i>
   <i name="e_wo_entrp">     -8.06439474</i>
   <i name="e_0_energy">     -0.00038887</i>
  </energy>
 </calculation>
 <calculation>
  <scstep>
   <time name="dav">  126.91  127.29</time>
   <time name="total">  129.71  130.18</time>
   <energy>
    <i name="alphaZ">    138.19729231</i>
    <i name="ewald">  -3548.87034595</i>
    <i name="hartreedc">  -2548.44668177</i>
    <i name="XCdc">    207.40447392</i>
    <i name="pawpsdc">   4768.72666024</i>
    <i name="pawaedc">  -5268.23934617</i>
    <i name="eentropy">     -0.00049313</i>
    <i name="bandstr">   -717.97546916</i>
    <i name="atom">   6961.00175798</i>
    <i name="e_fr_energy">     -8.20215173</i>
    <i name="e_wo_entrp">     -8.20165860</i>
    <i name="e_0_energy">     -8.20198735</i>
   </energy>
  </scstep>
  <scstep>
   <time name="diag">   18.61   18.63</time>
   <time name="diis">   74.73   75.68</time>
   <time name="orth">    1.39    1.39</time>
   <time name="total">   97.47   98.45</time>
   <energy>
    <i name="e_fr_energy">     -8.12412000</i>
    <i name="e_wo_entrp">     -8.12423282</i>
    <i name="e_0_energy">     -8.12415761</i>
   </energy>
  </scstep>
  <scstep>
   <time name="diag">   18.96   19.01</time>
   <time name="diis">   78.14   78.25</time>
   <time name="orth">    1.40    1.40</time>
   <time name="total">  101.38  101.56</time>
   <energy>
    <i name="e_fr_energy">     -8.07860052</i>
    <i name="e_wo_entrp">     -8.07878862</i>
    <i name="e_0_energy">     -8.07866322</i>
   </energy>
  </scstep>
  <scstep>
   <time name="diag">   18.83   18.85</time>
   <time name="diis">   78.65   78.86</time>
   <time name="orth">    1.40    1.40</time>
   <time name="total">  101.62  101.87</time>
   <energy>
    <i name="e_fr_energy">     -8.07840385</i>
    <i name="e_wo_entrp">     -8.07858230</i>
    <i name="e_0_energy">     -8.07846333</i>
   </energy>
  </scstep>
  <scstep>
   <time name="diag">   18.80   18.83</time>
   <time name="diis">   70.56   70.70</time>
   <time name="orth">    1.40    1.40</time>
   <time name="total">   90.86   91.04</time>
   <energy>
    <i name="alphaZ">    138.19729231</i>
    <i name="ewald">  -3548.87034595</i>
    <i name="hartreedc">  -2546.81239781</i>
    <i name="XCdc">    207.27596959</i>
    <i name="pawpsdc">   4769.65868974</i>
    <i name="pawaedc">  -5269.21957094</i>
    <i name="eentropy">      0.00016791</i>
    <i name="bandstr">   -719.30995855</i>
    <i name="atom">   6961.00175798</i>
    <i name="e_fr_energy">     -8.07839572</i>
    <i name="e_wo_entrp">     -8.07856363</i>
    <i name="e_0_energy">     -8.07845169</i>
   </energy>
  </scstep>
  <structure>
   <crystal>
    <varray name="basis" >
     <v>       3.15893121       0.00000000       0.00000000 </v>
     <v>       0.00000000       4.29938146       0.00000000 </v>
     <v>       0.00000000       0.00000000       6.52783871 </v>
    </varray>
    <i name="volume">     88.65751691</i>
    <varray name="rec_basis" >
     <v>       0.31656277       0.00000000       0.00000000 </v>
     <v>       0.00000000       0.23259160       0.00000000 </v>
     <v>       0.00000000       0.00000000       0.15319006 </v>
    </varray>
   </crystal>
   <varray name="positions" >
    <v>       0.50000000       0.50000000       0.72846219 </v>
    <v>       0.00000000       0.00000000      -0.01974806 </v>
    <v>       0.50000000       0.50000000       0.26925639 </v>
    <v>       0.00000000       0.00000000       0.52202947 </v>
   </varray>
  </structure>
  <varray name="forces" >
   <v>       0.00000000       0.00000000      -0.11339690 </v>
   <v>       0.00000000       0.00000000      -0.06848244 </v>
   <v>       0.00000000       0.00000000       0.06978311 </v>
   <v>       0.00000000       0.00000000       0.11209622 </v>
  </varray>
  <varray name="stress" >
   <v>      -5.06799978       0.00000000       0.00000000 </v>
   <v>       0.00000000     -10.34288933       0.00000000 </v>
   <v>       0.00000000       0.00000000      -4.45698239 </v>
  </varray>
  <energy>
   <i name="e_fr_energy">     -8.07839572</i>
   <i name="e_wo_entrp">     -8.07845169</i>
   <i name="e_0_energy">      0.00016791</i>
  </energy>
 </calculation>
 <calculation>
  <scstep>
   <time name="dav">  125.84  126.07</time>
   <time name="total">  128.57  128.80</time>
   <energy>
    <i name="alphaZ">    139.27773228</i>
    <i name="ewald">  -3504.45297862</i>
    <i name="hartreedc">  -2601.71488987</i>
    <i name="XCdc">    208.02756022</i>
    <i name="pawpsdc">   4769.60412901</i>
    <i name="pawaedc">  -5269.14342091</i>
    <i name="eentropy">     -0.00118761</i>
    <i name="bandstr">   -711.73686831</i>
    <i name="atom">   6961.00175798</i>
    <i name="e_fr_energy">     -9.13816583</i>
    <i name="e_wo_entrp">     -9.13697822</i>
    <i name="e_0_energy">     -9.13776996</i>
   </energy>
  </scstep>
  <scstep>
   <time name="diag">   18.81   18.83</time>
   <time name="diis">   74.64   74.80</time>
   <time name="orth">    1.42    1.42</time>
   <time name="total">   97.62   97.81</time>
   <energy>
    <i name="e_fr_energy">     -8.51394718</i>
    <i name="e_wo_entrp">     -8.51384459</i>
    <i name="e_0_energy">     -8.51391298</i>
   </energy>
  </scstep>
  <scstep>
   <time name="diag">   18.76   18.82</time>
   <time name="diis">   79.21   79.71</time>
   <time name="orth">    1.39    1.39</time>
   <time name="total">  102.12  102.69</time>
   <energy>
    <i name="e_fr_energy">     -8.10384588</i>
    <i name="e_wo_entrp">     -8.10405539</i>
    <i name="e_0_energy">     -8.10391571</i>
   </energy>
  </scstep>
  <scstep>
   <time name="diag">   18.65   18.67</time>
   <time name="diis">   78.74   78.88</time>
   <time name="orth">    1.39    1.39</time>
   <time name="total">  101.50  101.67</time>
   <energy>
    <i name="e_fr_energy">     -8.10066699</i>
    <i name="e_wo_entrp">     -8.10092236</i>
    <i name="e_0_energy">     -8.10075211</i>
   </energy>
  </scstep>
  <scstep>
   <time name="diag">   18.96   19.05</time>
   <time name="diis">   81.66   81.82</time>
   <time name="orth">    1.38    1.39</time>
   <time name="total">  104.88  105.27</time>
   <energy>
    <i name="e_fr_energy">     -8.10052234</i>
    <i name="e_wo_entrp">     -8.10074910</i>
    <i name="e_0_energy">     -8.10059792</i>
   </energy>
  </scstep>
  <scstep>
   <time name="diag">   18.61   18.63</time>
   <time name="diis">   79.41   79.55</time>
   <time name="orth">    1.41    1.41</time>
   <time name="total">  102.17  102.37</time>
   <energy>
    <i name="e_fr_energy">     -8.10062622</i>
    <i name="e_wo_entrp">     -8.10085010</i>
    <i name="e_0_energy">     -8.10070085</i>
   </energy>
  </scstep>
  <scstep>
   <time name="diag">   19.01   19.03</time>
   <time name="diis">   70.74   70.90</time>
   <time name="orth">    1.40    1.41</time>
   <time name="total">   91.25   91.44</time>
   <energy>
    <i name="alphaZ">    139.27773228</i>
    <i name="ewald">  -3504.45297862</i>
    <i name="hartreedc">  -2594.10267902</i>
    <i name="XCdc">    207.38517040</i>
    <i name="pawpsdc">   4773.82382556</i>
    <i name="pawaedc">  -5273.55505680</i>
    <i name="eentropy">      0.00022623</i>
    <i name="bandstr">   -717.47865986</i>
    <i name="atom">   6961.00175798</i>
    <i name="e_fr_energy">     -8.10066185</i>
    <i name="e_wo_entrp">     -8.10088808</i>
    <i name="e_0_energy">     -8.10073726</i>
   </energy>
  </scstep>
  <structure>
   <crystal>
    <varray name="basis" >
     <v>       3.19231588       0.00000000       0.00000000 </v>
     <v>       0.00000000       4.07694665       0.00000000 </v>
     <v>       0.00000000       0.00000000       6.75915684 </v>
    </varray>
    <i name="volume">     87.96976070</i>
    <varray name="rec_basis" >
     <v>       0.31325221       0.00000000       0.00000000 </v>
     <v>       0.00000000       0.24528160       0.00000000 </v>
     <v>       0.00000000       0.00000000       0.14794745 </v>
    </varray>
   </crystal>
   <varray name="positions" >
    <v>       0.50000000       0.50000000       0.72059981 </v>
    <v>       0.00000000       0.00000000      -0.02513388 </v>
    <v>       0.50000000       0.50000000       0.27376109 </v>
    <v>       0.00000000       0.00000000       0.53077298 </v>
   </varray>
  </structure>
  <varray name="forces" >
   <v>       0.00000000       0.00000000      -0.14377231 </v>
   <v>       0.00000000       0.00000000      -0.03600174 </v>
   <v>       0.00000000       0.00000000       0.08255523 </v>
   <v>       0.00000000       0.00000000       0.09721882 </v>
  </varray>
  <varray name="stress" >
   <v>      -0.11358279       0.00000000       0.00000000 </v>
   <v>       0.00000000       5.77459796       0.00000000 </v>
   <v>       0.00000000       0.00000000       4.36541167 </v>
  </varray>
  <energy>
   <i name="e_fr_energy">     -8.10066185</i>
   <i name="e_wo_entrp">     -8.10073726</i>
   <i name="e_0_energy">      0.00022623</i>
  </energy>
 </calculation>
 <calculation>
  <scstep>
   <time name="dav">  128.59  128.87</time>
   <time name="total">  131.32  131.60</time>
   <energy>
    <i name="alphaZ">    139.81563502</i>
    <i name="ewald">  -3486.37783942</i>
    <i name="hartreedc">  -2618.30804158</i>
    <i name="XCdc">    207.73194666</i>
    <i name="pawpsdc">   4773.79731532</i>
    <i name="pawaedc">  -5273.51488990</i>
    <i name="eentropy">     -0.00045919</i>
    <i name="bandstr">   -712.40477104</i>
    <i name="atom">   6961.00175798</i>
    <i name="e_fr_energy">     -8.25934616</i>
    <i name="e_wo_entrp">     -8.25888697</i>
    <i name="e_0_energy">     -8.25919310</i>
   </energy>
  </scstep>
  <scstep>
   <time name="diag">   18.97   19.04</time>
   <time name="diis">   74.12   74.22</time>
   <time name="orth">    1.41    1.41</time>
   <time name="total">   97.23   97.64</time>
   <energy>
    <i name="e_fr_energy">     -8.16014200</i>
    <i name="e_wo_entrp">     -8.15958266</i>
    <i name="e_0_energy">     -8.15995555</i>
   </energy>
  </scstep>
  <scstep>
   <time name="diag">   18.79   18.85</time>
   <time name="diis">   78.76   78.87</time>
   <time name="orth">    1.42    1.43</time>
   <time name="total">  101.71  101.90</time>
   <energy>
    <i name="e_fr_energy">     -8.10290262</i>
    <i name="e_wo_entrp">     -8.10231071</i>
    <i name="e_0_energy">     -8.10270531</i>
   </energy>
  </scstep>
  <scstep>
   <time name="diag">   18.60   18.62</time>
   <time name="diis">   78.57   78.95</time>
   <time name="orth">    1.38    1.38</time>
   <time name="total">  101.39  102.10</time>
   <energy>
    <i name="e_fr_energy">     -8.10225000</i>
    <i name="e_wo_entrp">     -8.10160681</i>
    <i name="e_0_energy">     -8.10203560</i>
   </energy>
  </scstep>
  <scstep>
   <time name="diag">   19.08   19.11</time>
   <time name="diis">   74.92   75.12</time>
   <time name="orth">    1.38    1.38</time>
   <time name="total">   95.48   95.72</time>
   <energy>
    <i name="alphaZ">    139.81563502</i>
    <i name="ewald">  -3486.37783942</i>
    <i name="hartreedc">  -2613.75751560</i>
    <i name="XCdc">    207.43822877</i>
    <i name="pawpsdc">   4775.86019977</i>
    <i name="pawaedc">  -5275.66267072</i>
    <i name="eentropy">     -0.00064171</i>
    <i name="bandstr">   -716.41938026</i>
    <i name="atom">   6961.00175798</i>
    <i name="e_fr_energy">     -8.10222617</i>
    <i name="e_wo_entrp">     -8.10158446</i>
    <i name="e_0_energy">     -8.10201227</i>
   </energy>
  </scstep>
  <structure>
   <crystal>
    <varray name="basis" >
     <v>       3.20439457       0.00000000       0.00000000 </v>
     <v>       0.00000000       3.99646892       0.00000000 </v>
     <v>       0.00000000       0.00000000       6.84284860 </v>
    </varray>
    <i name="volume">     87.63132091</i>
    <varray name="rec_basis" >
     <v>       0.31207143       0.00000000       0.00000000 </v>
     <v>       0.00000000       0.25022089       0.00000000 </v>
     <v>       0.00000000       0.00000000       0.14613797 </v>
    </varray>
   </crystal>
   <varray name="positions" >
    <v>       0.50000000       0.50000000       0.71785252 </v>
    <v>       0.00000000       0.00000000      -0.02701580 </v>
    <v>       0.50000000       0.50000000       0.27533513 </v>
    <v>       0.00000000       0.00000000       0.53382815 </v>
   </varray>
  </structure>
  <varray name="forces" >
   <v>       0.00000000       0.00000000      -0.14904943 </v>
   <v>       0.00000000       0.00000000      -0.02228251 </v>
   <v>       0.00000000       0.00000000       0.07777414 </v>
   <v>       0.00000000       0.00000000       0.09355780 </v>
  </varray>
  <varray name="stress" >
   <v>       0.87370938       0.00000000       0.00000000 </v>
   <v>       0.00000000       9.65190369       0.00000000 </v>
   <v>       0.00000000       0.00000000       5.71872497 </v>
  </varray>
  <energy>
   <i name="e_fr_energy">     -8.10222617</i>
   <i name="e_wo_entrp">     -8.10201227</i>
   <i name="e_0_energy">     -0.00064171</i>
  </energy>
 </calculation>
 <calculation>
  <scstep>
   <time name="dav">  131.54  131.74</time>
[...]
       <r>   5.3729  0.0000</r>
       <r>   6.2202  0.0000</r>
       <r>   7.0170  0.0000</r>
       <r>  10.3740  0.0000</r>
       <r>  11.0747  0.0000</r>
       <r>  12.2416  0.0000</r>
       <r>  12.4061  0.0000</r>
       <r>  13.4596  0.0000</r>
       <r>  13.8223  0.0000</r>
       <r>  14.4107  0.0000</r>
       <r>  14.9513  0.0000</r>
       <r>  15.1120  0.0000</r>
       <r>  15.6326  0.0000</r>
       <r>  16.1157  0.0000</r>
       <r>  16.8509  0.0000</r>
       <r>  16.9193  0.0000</r>
       <r>  17.4235  0.0000</r>
       <r>  17.8275  0.0000</r>
       <r>  18.3072  0.0000</r>
       <r>  18.8905  0.0000</r>
       <r>  19.3317  0.0000</r>
       <r>  19.6467  0.0000</r>
       <r>  19.9400  0.0000</r>
       <r>  20.3002  0.0000</r>
       <r>  21.7413  0.0000</r>
       <r>  22.2820  0.0000</r>
       <r>  22.4984  0.0000</r>
       <r>  23.6087  0.0000</r>
       <r>  25.1080  0.0000</r>
       <r>  25.2236  0.0000</r>
       <r>  25.7232  0.0000</r>
       <r>  26.2366  0.0000</r>
       <r>  26.7463  0.0000</r>
       <r>  27.5278  0.0000</r>
       <r>  27.7839  0.0000</r>
       <r>  28.1965  0.0000</r>
       <r>  28.5413  0.0000</r>
       <r>  28.7570  0.0000</r>
       <r>  29.0563  0.0000</r>
       <r>  29.4551  0.0000</r>
       <r>  29.9341  0.0000</r>
       <r>  30.6596  0.0000</r>
       <r>  30.9089  0.0000</r>
       <r>  31.3164  0.0000</r>
       <r>  31.4722  0.0000</r>
       <r>  32.3005  0.0000</r>
       <r>  32.8228  0.0000</r>
       <r>  33.5300  0.0000</r>
       <r>  33.9536  0.0000</r>
       <r>  34.2265  0.0000</r>
       <r>  34.6827  0.0000</r>
       <r>  35.6272  0.0000</r>
      </set>
      <set comment="kpoint 186">
       <r> -50.2715  1.0000</r>
       <r> -50.2472  1.0000</r>
       <r> -22.1941  1.0000</r>
       <r> -22.1918  1.0000</r>
       <r> -22.1840  1.0000</r>
       <r> -22.1647  1.0000</r>
       <r> -22.1626  1.0000</r>
       <r> -22.1595  1.0000</r>
       <r> -21.9498  1.0000</r>
       <r> -21.9289  1.0000</r>
       <r> -21.9170  1.0000</r>
       <r> -21.9016  1.0000</r>
       <r> -21.8944  1.0000</r>
       <r>  -6.4462  1.0000</r>
       <r>  -4.8988  1.0000</r>
       <r>  -4.7484  1.0000</r>
       <r>  -4.6953  1.0000</r>
       <r>  -4.6636  1.0000</r>
       <r>  -4.5145  1.0000</r>
       <r>  -3.0587  1.0000</r>
       <r>   0.3119  1.0000</r>
       <r>   1.3992  1.0000</r>
       <r>   3.6965 -0.0000</r>
       <r>   4.5774 -0.0000</r>
       <r>   5.3804  0.0000</r>
       <r>   6.0211  0.0000</r>
       <r>   6.3814  0.0000</r>
       <r>   8.9587  0.0000</r>
       <r>  11.6901  0.0000</r>
       <r>  12.3656  0.0000</r>
       <r>  12.6954  0.0000</r>
       <r>  13.1292  0.0000</r>
       <r>  13.6048  0.0000</r>
       <r>  14.0436  0.0000</r>
       <r>  14.3622  0.0000</r>
       <r>  15.2166  0.0000</r>
       <r>  15.5728  0.0000</r>
       <r>  16.0461  0.0000</r>
       <r>  16.5945  0.0000</r>
       <r>  17.1538  0.0000</r>
       <r>  17.3519  0.0000</r>
       <r>  17.8575  0.0000</r>
       <r>  18.2529  0.0000</r>
       <r>  18.5168  0.0000</r>
       <r>  19.7537  0.0000</r>
       <r>  20.6267  0.0000</r>
       <r>  21.0505  0.0000</r>
       <r>  21.5167  0.0000</r>
       <r>  22.4181  0.0000</r>
       <r>  22.7004  0.0000</r>
       <r>  22.9287  0.0000</r>
       <r>  23.6515  0.0000</r>
       <r>  24.3054  0.0000</r>
       <r>  24.9994  0.0000</r>
       <r>  25.2957  0.0000</r>
       <r>  25.8363  0.0000</r>
       <r>  26.4689  0.0000</r>
       <r>  27.1242  0.0000</r>
       <r>  27.4585  0.0000</r>
       <r>  27.7723  0.0000</r>
       <r>  28.2011  0.0000</r>
       <r>  28.8016  0.0000</r>
       <r>  29.4095  0.0000</r>
       <r>  29.7283  0.0000</r>
       <r>  30.1853  0.0000</r>
       <r>  30.6543  0.0000</r>
       <r>  31.3166  0.0000</r>
       <r>  31.6803  0.0000</r>
       <r>  32.1346  0.0000</r>
       <r>  32.4358  0.0000</r>
       <r>  33.3112  0.0000</r>
       <r>  33.4562  0.0000</r>
       <r>  33.8121  0.0000</r>
       <r>  34.5230  0.0000</r>
       <r>  34.6633  0.0000</r>
       <r>  35.2892  0.0000</r>
      </set>
      <set comment="kpoint 187">
       <r> -50.2709  1.0000</r>
       <r> -50.2465  1.0000</r>
       <r> -22.1953  1.0000</r>
       <r> -22.1927  1.0000</r>
       <r> -22.1902  1.0000</r>
       <r> -22.1754  1.0000</r>
       <r> -22.1619  1.0000</r>
       <r> -22.1583  1.0000</r>
       <r> -21.9433  1.0000</r>
       <r> -21.9313  1.0000</r>
       <r> -21.9189  1.0000</r>
       <r> -21.9013  1.0000</r>
       <r> -21.8942  1.0000</r>
       <r>  -6.3134  1.0000</r>
       <r>  -4.8425  1.0000</r>
       <r>  -4.7861  1.0000</r>
       <r>  -4.7013  1.0000</r>
       <r>  -4.6805  1.0000</r>
       <r>  -4.4230  1.0000</r>
       <r>  -2.8503  1.0000</r>
       <r>   0.5254  1.0000</r>
       <r>   1.6208  1.0000</r>
       <r>   3.8813 -0.0000</r>
       <r>   4.5800 -0.0000</r>
       <r>   4.7903 -0.0000</r>
       <r>   5.7686  0.0000</r>
       <r>   6.5297  0.0000</r>
       <r>   7.4857  0.0000</r>
       <r>  10.7956  0.0000</r>
       <r>  11.5504  0.0000</r>
       <r>  12.5140  0.0000</r>
       <r>  13.4756  0.0000</r>
       <r>  13.6591  0.0000</r>
       <r>  13.9402  0.0000</r>
       <r>  14.3246  0.0000</r>
       <r>  14.9766  0.0000</r>
       <r>  15.3567  0.0000</r>
       <r>  15.6733  0.0000</r>
       <r>  16.3437  0.0000</r>
       <r>  16.8102  0.0000</r>
       <r>  17.0061  0.0000</r>
       <r>  18.3457  0.0000</r>
       <r>  19.3464  0.0000</r>
       <r>  19.9972  0.0000</r>
       <r>  20.3207  0.0000</r>
       <r>  21.5454  0.0000</r>
       <r>  21.8074  0.0000</r>
       <r>  22.2891  0.0000</r>
       <r>  22.9285  0.0000</r>
       <r>  23.2976  0.0000</r>
       <r>  23.5761  0.0000</r>
       <r>  23.9488  0.0000</r>
       <r>  24.3331  0.0000</r>
       <r>  24.7369  0.0000</r>
       <r>  24.9604  0.0000</r>
       <r>  25.6307  0.0000</r>
       <r>  25.9540  0.0000</r>
       <r>  26.2032  0.0000</r>
       <r>  26.9279  0.0000</r>
       <r>  27.6528  0.0000</r>
       <r>  28.1193  0.0000</r>
       <r>  28.5639  0.0000</r>
       <r>  29.0275  0.0000</r>
       <r>  29.9452  0.0000</r>
       <r>  30.5823  0.0000</r>
       <r>  31.2042  0.0000</r>
       <r>  31.7111  0.0000</r>
       <r>  31.8062  0.0000</r>
       <r>  32.6238  0.0000</r>
       <r>  32.9475  0.0000</r>
       <r>  33.2793  0.0000</r>
       <r>  33.4466  0.0000</r>
       <r>  34.3808  0.0000</r>
       <r>  34.5099  0.0000</r>
       <r>  34.8210  0.0000</r>
       <r>  35.2225  0.0000</r>
      </set>
      <set comment="kpoint 188">
       <r> -50.2700  1.0000</r>
       <r> -50.2457  1.0000</r>
       <r> -22.2099  1.0000</r>
       <r> -22.1936  1.0000</r>
       <r> -22.1882  1.0000</r>
       <r> -22.1867  1.0000</r>
       <r> -22.1608  1.0000</r>
       <r> -22.1569  1.0000</r>
       <r> -21.9347  1.0000</r>
       <r> -21.9343  1.0000</r>
       <r> -21.9214  1.0000</r>
       <r> -21.9009  1.0000</r>
       <r> -21.8940  1.0000</r>
       <r>  -6.1379  1.0000</r>
       <r>  -4.8150  1.0000</r>
       <r>  -4.7865  1.0000</r>
       <r>  -4.7260  1.0000</r>
       <r>  -4.6706  1.0000</r>
       <r>  -4.2922  1.0000</r>
       <r>  -2.5298  1.0000</r>
       <r>   0.8271  1.0000</r>
       <r>   1.9417  1.0000</r>
       <r>   3.2773 -0.0000</r>
       <r>   4.2582 -0.0000</r>
       <r>   5.0553 -0.0000</r>
       <r>   5.9087  0.0000</r>
       <r>   6.1908  0.0000</r>
       <r>   6.7980  0.0000</r>
       <r>   9.6075  0.0000</r>
       <r>  10.3501  0.0000</r>
       <r>  11.7814  0.0000</r>
       <r>  12.7662  0.0000</r>
       <r>  13.2895  0.0000</r>
       <r>  13.9046  0.0000</r>
       <r>  14.3863  0.0000</r>
       <r>  14.6618  0.0000</r>
       <r>  15.6068  0.0000</r>
       <r>  15.8157  0.0000</r>
       <r>  16.3390  0.0000</r>
       <r>  16.7480  0.0000</r>
       <r>  17.7307  0.0000</r>
       <r>  19.6113  0.0000</r>
       <r>  20.0272  0.0000</r>
       <r>  20.6907  0.0000</r>
       <r>  21.3758  0.0000</r>
       <r>  21.7182  0.0000</r>
       <r>  22.1474  0.0000</r>
       <r>  22.4391  0.0000</r>
       <r>  22.8933  0.0000</r>
       <r>  23.7563  0.0000</r>
       <r>  23.9344  0.0000</r>
       <r>  24.2351  0.0000</r>
       <r>  24.7465  0.0000</r>
       <r>  25.2781  0.0000</r>
       <r>  25.4337  0.0000</r>
       <r>  25.8358  0.0000</r>
       <r>  26.0056  0.0000</r>
       <r>  26.4715  0.0000</r>
       <r>  26.9524  0.0000</r>
       <r>  27.1365  0.0000</r>
       <r>  27.6076  0.0000</r>
       <r>  28.6145  0.0000</r>
       <r>  29.0457  0.0000</r>
       <r>  29.9331  0.0000</r>
       <r>  30.5979  0.0000</r>
       <r>  30.8707  0.0000</r>
       <r>  31.2451  0.0000</r>
       <r>  32.5300  0.0000</r>
       <r>  32.6528  0.0000</r>
       <r>  33.0794  0.0000</r>
       <r>  33.4288  0.0000</r>
       <r>  33.8996  0.0000</r>
       <r>  34.4021  0.0000</r>
       <r>  34.6211  0.0000</r>
       <r>  34.8346  0.0000</r>
       <r>  35.6644  0.0000</r>
      </set>
      <set comment="kpoint 189">
       <r> -50.2691  1.0000</r>
       <r> -50.2448  1.0000</r>
       <r> -22.2257  1.0000</r>
       <r> -22.2067  1.0000</r>
       <r> -22.1869  1.0000</r>
       <r> -22.1860  1.0000</r>
       <r> -22.1595  1.0000</r>
       <r> -22.1554  1.0000</r>
       <r> -21.9376  1.0000</r>
       <r> -21.9257  1.0000</r>
       <r> -21.9239  1.0000</r>
       <r> -21.9005  1.0000</r>
       <r> -21.8937  1.0000</r>
       <r>  -5.9518  1.0000</r>
       <r>  -4.8292  1.0000</r>
       <r>  -4.7897  1.0000</r>
       <r>  -4.7143  1.0000</r>
       <r>  -4.6406  1.0000</r>
       <r>  -4.0994  1.0000</r>
       <r>  -2.0928  1.0000</r>
       <r>   1.1250  1.0000</r>
       <r>   2.1647  1.0000</r>
       <r>   2.3875  1.0202</r>
       <r>   4.5246 -0.0000</r>
       <r>   4.7236 -0.0000</r>
       <r>   5.5954  0.0000</r>
       <r>   6.3330  0.0000</r>
       <r>   7.0501  0.0000</r>
       <r>   8.5697  0.0000</r>
       <r>   9.2724  0.0000</r>
       <r>  10.7441  0.0000</r>
       <r>  11.7002  0.0000</r>
       <r>  12.4681  0.0000</r>
       <r>  13.4622  0.0000</r>
       <r>  14.2487  0.0000</r>
       <r>  14.7773  0.0000</r>
       <r>  15.8242  0.0000</r>
       <r>  16.0474  0.0000</r>
       <r>  16.6776  0.0000</r>
       <r>  17.7445  0.0000</r>
       <r>  18.7423  0.0000</r>
       <r>  19.6554  0.0000</r>
       <r>  20.5007  0.0000</r>
       <r>  20.7790  0.0000</r>
       <r>  21.4915  0.0000</r>
       <r>  21.9581  0.0000</r>
       <r>  22.2295  0.0000</r>
       <r>  23.2186  0.0000</r>
       <r>  23.3322  0.0000</r>
       <r>  23.6293  0.0000</r>
       <r>  23.8770  0.0000</r>
       <r>  24.5584  0.0000</r>
       <r>  25.3458  0.0000</r>
       <r>  25.4697  0.0000</r>
       <r>  25.9395  0.0000</r>
       <r>  26.4402  0.0000</r>
       <r>  26.8331  0.0000</r>
       <r>  26.9981  0.0000</r>
       <r>  27.4744  0.0000</r>
       <r>  27.8883  0.0000</r>
       <r>  28.2180  0.0000</r>
       <r>  28.4963  0.0000</r>
       <r>  29.3557  0.0000</r>
       <r>  29.8799  0.0000</r>
       <r>  30.2379  0.0000</r>
       <r>  30.5642  0.0000</r>
       <r>  31.0186  0.0000</r>
       <r>  32.0606  0.0000</r>
       <r>  32.2998  0.0000</r>
       <r>  32.9917  0.0000</r>
       <r>  33.4576  0.0000</r>
       <r>  33.9973  0.0000</r>
       <r>  34.4056  0.0000</r>
       <r>  34.9421  0.0000</r>
       <r>  35.4713  0.0000</r>
       <r>  35.7641  0.0000</r>
      </set>
      <set comment="kpoint 190">
       <r> -50.2682  1.0000</r>
       <r> -50.2439  1.0000</r>
       <r> -22.2402  1.0000</r>
       <r> -22.2208  1.0000</r>
       <r> -22.1850  1.0000</r>
       <r> -22.1839  1.0000</r>
       <r> -22.1585  1.0000</r>
       <r> -22.1540  1.0000</r>
       <r> -21.9406  1.0000</r>
       <r> -21.9266  1.0000</r>
       <r> -21.9169  1.0000</r>
       <r> -21.9002  1.0000</r>
       <r> -21.8934  1.0000</r>
       <r>  -5.7932  1.0000</r>
       <r>  -4.8310  1.0000</r>
       <r>  -4.8185  1.0000</r>
       <r>  -4.6983  1.0000</r>
       <r>  -4.5959  1.0000</r>
       <r>  -3.8230  1.0000</r>
       <r>  -1.5409  1.0000</r>
       <r>   0.7432  1.0000</r>
       <r>   2.0054  1.0000</r>
       <r>   2.6407 -0.0243</r>
       <r>   3.6623 -0.0000</r>
       <r>   5.0524 -0.0000</r>
       <r>   5.8824  0.0000</r>
       <r>   6.5910  0.0000</r>
       <r>   7.0494  0.0000</r>
       <r>   7.9796  0.0000</r>
       <r>   8.6487  0.0000</r>
       <r>   9.6793  0.0000</r>
       <r>  10.6111  0.0000</r>
       <r>  11.5235  0.0000</r>
       <r>  12.5446  0.0000</r>
       <r>  14.5785  0.0000</r>
       <r>  15.1678  0.0000</r>
       <r>  16.1559  0.0000</r>
       <r>  16.4269  0.0000</r>
       <r>  17.1005  0.0000</r>
       <r>  18.0788  0.0000</r>
       <r>  18.8238  0.0000</r>
       <r>  19.8195  0.0000</r>
       <r>  20.2408  0.0000</r>
       <r>  20.7142  0.0000</r>
       <r>  21.4555  0.0000</r>
       <r>  21.7133  0.0000</r>
       <r>  22.6977  0.0000</r>
       <r>  23.6277  0.0000</r>
       <r>  23.7580  0.0000</r>
       <r>  24.1027  0.0000</r>
       <r>  24.7406  0.0000</r>
       <r>  24.8666  0.0000</r>
       <r>  25.4036  0.0000</r>
       <r>  25.7456  0.0000</r>
       <r>  26.6139  0.0000</r>
       <r>  26.8719  0.0000</r>
       <r>  27.4358  0.0000</r>
       <r>  27.6854  0.0000</r>
       <r>  28.1915  0.0000</r>
       <r>  28.5757  0.0000</r>
       <r>  28.8257  0.0000</r>
       <r>  29.2970  0.0000</r>
       <r>  30.0178  0.0000</r>
       <r>  30.1594  0.0000</r>
       <r>  30.4153  0.0000</r>
       <r>  31.0053  0.0000</r>
       <r>  31.1398  0.0000</r>
       <r>  31.2878  0.0000</r>
       <r>  32.2117  0.0000</r>
       <r>  32.7702  0.0000</r>
       <r>  33.0218  0.0000</r>
       <r>  33.6741  0.0000</r>
       <r>  34.1005  0.0000</r>
       <r>  34.5992  0.0000</r>
       <r>  35.2387  0.0000</r>
       <r>  35.4958  0.0000</r>
      </set>
      <set comment="kpoint 191">
       <r> -50.2676  1.0000</r>
       <r> -50.2433  1.0000</r>
       <r> -22.2512  1.0000</r>
       <r> -22.2317  1.0000</r>
       <r> -22.1834  1.0000</r>
       <r> -22.1824  1.0000</r>
       <r> -22.1576  1.0000</r>
       <r> -22.1530  1.0000</r>
       <r> -21.9428  1.0000</r>
       <r> -21.9285  1.0000</r>
       <r> -21.9104  1.0000</r>
       <r> -21.9000  1.0000</r>
       <r> -21.8932  1.0000</r>
       <r>  -5.6871  1.0000</r>
       <r>  -4.8438  1.0000</r>
       <r>  -4.8234  1.0000</r>
       <r>  -4.6907  1.0000</r>
       <r>  -4.5583  1.0000</r>
       <r>  -3.4788  1.0000</r>
       <r>  -0.8953  1.0000</r>
       <r>  -0.0574  1.0000</r>
       <r>   2.0190  1.0000</r>
       <r>   2.4770  0.5538</r>
       <r>   3.7903 -0.0000</r>
       <r>   5.1362 -0.0000</r>
       <r>   5.8948  0.0000</r>
       <r>   6.6006  0.0000</r>
       <r>   7.0775  0.0000</r>
       <r>   8.0962  0.0000</r>
       <r>   8.5627  0.0000</r>
       <r>   8.8584  0.0000</r>
       <r>   9.5957  0.0000</r>
       <r>  10.6415  0.0000</r>
       <r>  11.6625  0.0000</r>
       <r>  15.0795  0.0000</r>
       <r>  15.5925  0.0000</r>
       <r>  16.5125  0.0000</r>
       <r>  16.8320  0.0000</r>
       <r>  17.5150  0.0000</r>
       <r>  17.8399  0.0000</r>
       <r>  18.3627  0.0000</r>
       <r>  19.2601  0.0000</r>
       <r>  20.0047  0.0000</r>
       <r>  20.4861  0.0000</r>
       <r>  21.2571  0.0000</r>
       <r>  22.1767  0.0000</r>
       <r>  23.0446  0.0000</r>
       <r>  23.7635  0.0000</r>
       <r>  24.2124  0.0000</r>
       <r>  24.6759  0.0000</r>
       <r>  24.8553  0.0000</r>
       <r>  25.7022  0.0000</r>
       <r>  26.2148  0.0000</r>
       <r>  26.4313  0.0000</r>
       <r>  26.7828  0.0000</r>
       <r>  27.1696  0.0000</r>
       <r>  27.8624  0.0000</r>
       <r>  28.2367  0.0000</r>
       <r>  28.6395  0.0000</r>
       <r>  28.8417  0.0000</r>
       <r>  29.3325  0.0000</r>
       <r>  29.8718  0.0000</r>
       <r>  30.2956  0.0000</r>
       <r>  30.7360  0.0000</r>
       <r>  31.1083  0.0000</r>
       <r>  31.2329  0.0000</r>
       <r>  31.5520  0.0000</r>
       <r>  31.9905  0.0000</r>
       <r>  32.2108  0.0000</r>
       <r>  32.5405  0.0000</r>
       <r>  33.0536  0.0000</r>
       <r>  33.3594  0.0000</r>
       <r>  33.6525  0.0000</r>
       <r>  34.1639  0.0000</r>
       <r>  34.5096  0.0000</r>
       <r>  34.7960  0.0000</r>
      </set>
      <set comment="kpoint 192">
       <r> -50.2672  1.0000</r>
       <r> -50.2429  1.0000</r>
       <r> -22.2573  1.0000</r>
       <r> -22.2377  1.0000</r>
       <r> -22.1826  1.0000</r>
       <r> -22.1816  1.0000</r>
       <r> -22.1572  1.0000</r>
       <r> -22.1524  1.0000</r>
       <r> -21.9441  1.0000</r>
       <r> -21.9295  1.0000</r>
       <r> -21.9068  1.0000</r>
       <r> -21.8999  1.0000</r>
       <r> -21.8931  1.0000</r>
       <r>  -5.6369  1.0000</r>
       <r>  -4.8564  1.0000</r>
       <r>  -4.8181  1.0000</r>
       <r>  -4.6874  1.0000</r>
       <r>  -4.5380  1.0000</r>
       <r>  -3.1873  1.0000</r>
       <r>  -0.6537  1.0000</r>
       <r>  -0.1838  1.0000</r>
       <r>   1.1891  1.0000</r>
       <r>   2.9147 -0.0000</r>
       <r>   4.3080 -0.0000</r>
       <r>   4.8744 -0.0000</r>
       <r>   5.3758  0.0000</r>
       <r>   6.9333  0.0000</r>
       <r>   7.6335  0.0000</r>
       <r>   7.7851  0.0000</r>
       <r>   8.5308  0.0000</r>
       <r>   8.7706  0.0000</r>
       <r>   8.9824  0.0000</r>
       <r>  10.0328  0.0000</r>
       <r>  11.0160  0.0000</r>
       <r>  15.6055  0.0000</r>
       <r>  15.9466  0.0000</r>
       <r>  16.4299  0.0000</r>
       <r>  17.2044  0.0000</r>
       <r>  17.5568  0.0000</r>
       <r>  17.8121  0.0000</r>
       <r>  18.0905  0.0000</r>
       <r>  19.1135  0.0000</r>
       <r>  19.4208  0.0000</r>
       <r>  20.0985  0.0000</r>
       <r>  21.1796  0.0000</r>
       <r>  22.7086  0.0000</r>
       <r>  22.8921  0.0000</r>
       <r>  23.4125  0.0000</r>
       <r>  24.7708  0.0000</r>
       <r>  25.3466  0.0000</r>
       <r>  25.8414  0.0000</r>
       <r>  25.9293  0.0000</r>
       <r>  26.3722  0.0000</r>
       <r>  26.3943  0.0000</r>
       <r>  27.0561  0.0000</r>
       <r>  27.8564  0.0000</r>
       <r>  28.3243  0.0000</r>
       <r>  28.6839  0.0000</r>
       <r>  28.9648  0.0000</r>
       <r>  29.1284  0.0000</r>
       <r>  29.4669  0.0000</r>
       <r>  29.7403  0.0000</r>
       <r>  29.9264  0.0000</r>
       <r>  30.6004  0.0000</r>
       <r>  30.8511  0.0000</r>
       <r>  31.7074  0.0000</r>
       <r>  31.8656  0.0000</r>
       <r>  32.3200  0.0000</r>
       <r>  32.4787  0.0000</r>
       <r>  32.6783  0.0000</r>
       <r>  33.0741  0.0000</r>
       <r>  33.4692  0.0000</r>
       <r>  34.1319  0.0000</r>
       <r>  34.3308  0.0000</r>
       <r>  34.5235  0.0000</r>
       <r>  34.9154  0.0000</r>
      </set>
     </set>
    </set>
   </array>
  </eigenvalues>
 </calculation>
 <structure name="finalpos" >
  <crystal>
   <varray name="basis" >
    <v>       3.21873005       0.00000000       0.00000000 </v>
    <v>       0.00000000       3.86976745       0.00000000 </v>
    <v>       0.00000000       0.00000000       7.85645081 </v>
   </varray>
   <i name="volume">     97.85788316</i>
   <varray name="rec_basis" >
    <v>       0.31068154       0.00000000       0.00000000 </v>
    <v>       0.00000000       0.25841346       0.00000000 </v>
    <v>       0.00000000       0.00000000       0.12728394 </v>
   </varray>
  </crystal>
  <varray name="positions" >
   <v>       0.50000000       0.50000000       0.68853562 </v>
   <v>       0.00000000       0.00000000      -0.04812792 </v>
   <v>       0.50000000       0.50000000       0.29746269 </v>
   <v>       0.00000000       0.00000000       0.56212962 </v>
  </varray>
 </structure>
</modeling>
