  MPI-parallelism will be employed.
------------------------------------------------------------
          Invoking FHI-aims ...
          Version 170201
          Compiled on 2017/02/05 at 10:55:20 on host eos01.

          When using FHI-aims, please cite the following reference:

          Volker Blum, Ralf Gehrke, Felix Hanke, Paula Havu,
          Ville Havu, Xinguo Ren, Karsten Reuter, and Matthias Scheffler,
          'Ab Initio Molecular Simulations with Numeric Atom-Centered Orbitals',
          Computer Physics Communications 180, 2175-2196 (2009)

          For any questions about FHI-aims, please visit the aimsclub website
          with its forums and wiki. Contributions to both the forums and the
          wiki are warmly encouraged - they are for you, and everyone is welcome there.

------------------------------------------------------------



  Date     :  20170508, Time     :  200326.406
  Time zero on CPU 1             :   0.288017000000000E+00  s.
  Internal wall clock time zero  :           263505806.406  s.

  FHI-aims created a unique identifier for this run for later identification
  aims_uuid : F9312635-0FC6-4290-AE6A-DFB71FBFA7C8

  Using       32 parallel tasks.
  Task        0 on host eos311 reporting.
  Task        1 on host eos311 reporting.
  Task        2 on host eos311 reporting.
  Task        3 on host eos311 reporting.
  Task        4 on host eos311 reporting.
  Task        5 on host eos311 reporting.
  Task        6 on host eos311 reporting.
  Task        7 on host eos311 reporting.
  Task        8 on host eos311 reporting.
  Task        9 on host eos311 reporting.
  Task       10 on host eos311 reporting.
  Task       11 on host eos311 reporting.
  Task       12 on host eos311 reporting.
  Task       13 on host eos311 reporting.
  Task       14 on host eos311 reporting.
  Task       15 on host eos311 reporting.
  Task       16 on host eos311 reporting.
  Task       17 on host eos311 reporting.
  Task       18 on host eos311 reporting.
  Task       19 on host eos311 reporting.
  Task       20 on host eos311 reporting.
  Task       21 on host eos311 reporting.
  Task       22 on host eos311 reporting.
  Task       23 on host eos311 reporting.
  Task       24 on host eos311 reporting.
  Task       25 on host eos311 reporting.
  Task       26 on host eos311 reporting.
  Task       27 on host eos311 reporting.
  Task       28 on host eos311 reporting.
  Task       29 on host eos311 reporting.
  Task       30 on host eos311 reporting.
  Task       31 on host eos311 reporting.

  Performing system and environment tests:
  | Environment variable OMP_NUM_THREADS correctly set to 1.
  | Stacksize not measured: no C compiler
  | Checking for scalapack...
  | Testing pdtran()...
  | All pdtran() tests passed.

  Obtaining array dimensions for all initial allocations:
  
  -----------------------------------------------------------------------
  Parsing control.in (first pass over file, find array dimensions only).
  The contents of control.in will be repeated verbatim below
  unless switched off by setting 'verbatim_writeout .false.' .
  in the first line of control.in .
  -----------------------------------------------------------------------
  
  ##### Physical settings  ################
  
    xc          pbe
    RI_method   LVL_fast
    charge      0.0
    spin none
  # spin collinear
  # default_initial_moment 1
  # default_initial_moment hund
    relativistic       atomic_zora scalar
    many_body_dispersion
  # vdw_correction_hirshfeld
  # mbd_eigensolver lapack
  
    KS_method          scalapack
    basis_threshold    1.e-5
    empty_states 8
  
  ##### SCF settings   ################
  
    sc_accuracy_forces 1E-4
    sc_accuracy_rho    1E-5
    sc_accuracy_eev    1E-3
    sc_accuracy_etot   1E-6
    sc_iter_limit      600
    mixer pulay
    n_max_pulay 6
    charge_mix_param 0.08
    occupation_type gaussian 0.01
  
  # k-point grid
    k_grid  10 10 10
  #####  Relaxation###################
  
  # partition_type  rho_r2
  # relax_geometry  bfgs 0.01
  # relax_unit_cell full
  # relax_unit_cell fixed_angles
  
  #####  Output options #############
  #  output mulliken
  #  output dipole
  
  #  DOS
     dos_kgrid_factors 8 8 8
     output dos -20 20 10000 0.1
     output atom_proj_dos -20 10000 160 0.1
     output species_proj_dos -20 20 10000 0.1
  #  note 0.02 in the DOS parameters is Gaussian broadening.
  
  # output band structure
     output band 0.5   0.5   0.5    0.0   0.0   0.0    50  L     Gamma
     output band 0.0   0.0   0.0    0.0   0.5   0.5    50  Gamma X
     output band 0.0   0.5   0.5    0.25  0.5   0.75   50  X     W
     output band 0.25  0.5   0.75   0.375 0.375 0.75   50  W     K
  
  ################################################################################
  #
  #  FHI-aims code project
  #  VB, Fritz-Haber Institut, 2009
  #
  #  Suggested "light" defaults for Si atom (to be pasted into control.in file)
  #  Be sure to double-check any results obtained with these settings for post-processing,
  #  e.g., with the "tight" defaults and larger basis sets.
  #
  ################################################################################
     species        Si
  #     global species definitions
      nucleus             14
      mass                28.0855
  #
      l_hartree           6
  #
      cut_pot             4.0          2.0  1.0
      basis_dep_cutoff    1e-4
  #
      radial_base         42 7.0
      radial_multiplier   2
      angular_grids       specified
        division   0.4121   50
        division   0.7665  110
        division   1.0603  194
        division   1.2846  302
        division   1.4125  434
  #      division   1.4810  590
  #      division   1.5529  770
  #      division   1.6284  974
  #      division   2.6016 1202
  #      outer_grid   974
        outer_grid  434
  ################################################################################
  #
  #  Definition of "minimal" basis
  #
  ################################################################################
  #     valence basis states
      valence      3  s   2.
      valence      3  p   2.
  #     ion occupancy
      ion_occ      3  s   1.
      ion_occ      3  p   1.
  ################################################################################
  #
  #  Suggested additional basis functions. For production calculations,
  #  uncomment them one after another (the most important basis functions are
  #  listed first).
  #
  #  Constructed for dimers: 1.75 A, 2.0 A, 2.25 A, 2.75 A, 3.75 A
  #
  ################################################################################
  #  "First tier" - improvements: -571.96 meV to -37.03 meV
       hydro 3 d 4.2
       hydro 2 p 1.4
       hydro 4 f 6.2
       ionic 3 s auto
  #  "Second tier" - improvements: -16.76 meV to -3.03 meV
       hydro 3 d 9
       hydro 5 g 9.4
  #     hydro 4 p 4
  #     hydro 1 s 0.65
  #  "Third tier" - improvements: -3.89 meV to -0.60 meV
  #     ionic 3 d auto
  #     hydro 3 s 2.6
  #     hydro 4 f 8.4
  #     hydro 3 d 3.4
  #     hydro 3 p 7.8
  #  "Fourth tier" - improvements: -0.33 meV to -0.11 meV
  #     hydro 2 p 1.6
  #     hydro 5 g 10.8
  #     hydro 5 f 11.2
  #     hydro 3 d 1
  #     hydro 4 s 4.5
  #  Further basis functions that fell out of the optimization - noise
  #  level... < -0.08 meV
  #     hydro 4 d 6.6
  #     hydro 5 g 16.4
  #     hydro 4 d 9
  ################################################################################
  #
  # For methods that use the localized form of the "resolution of identity" for
  # the two-electron Coulomb operator (RI_method LVL), particularly Hartree-Fock and
  # hybrid density functional calculations, the highest accuracy can be obtained by
  # uncommenting the line beginning with "for_aux"  below, thus adding an extra g radial
  # function to the construction of the product basis set for the expansion.
  # See Ref. New J. Phys. 17, 093020 (2015) for more information, particularly Figs. 1 and 6.
  #
  ################################################################################
  #
  # for_aux hydro 5 g 6.0
  
  -----------------------------------------------------------------------
  Completed first pass over input file control.in .
  -----------------------------------------------------------------------
  
  
  -----------------------------------------------------------------------
  Parsing geometry.in (first pass over file, find array dimensions only).
  The contents of geometry.in will be repeated verbatim below
  unless switched off by setting 'verbatim_writeout .false.' .
  in the first line of geometry.in .
  -----------------------------------------------------------------------
  
  # Diamond structure with lattice constant 5.431 AA.
  lattice_vector    0.0000    2.7155   2.7155
  lattice_vector    2.7155    0.0000   2.7155
  lattice_vector    2.7155    2.7155   0.0000
  
  atom_frac          0.0    0.0    0.0   Si
  atom_frac          0.25   0.25   0.25  Si
  
  -----------------------------------------------------------------------
  Completed first pass over input file geometry.in .
  -----------------------------------------------------------------------
  

  Basic array size parameters:
  | Number of species                 :        1
  | Number of atoms                   :        2
  | Number of lattice vectors         :        3
  | Max. basis fn. angular momentum   :        4
  | Max. atomic/ionic basis occupied n:        3
  | Max. number of basis fn. types    :        3
  | Max. radial fns per species/type  :        5
  | Max. logarithmic grid size        :     1346
  | Max. radial integration grid size :       85
  | Max. angular integration grid size:      434
  | Max. angular grid division number :        8
  | Radial grid for Hartree potential :     1346
  | Number of spin channels           :        1

------------------------------------------------------------
          Reading file control.in.
------------------------------------------------------------
  XC: Using PBE gradient-corrected functionals.
  The 'LVL' version of RI (resolution of identity) technique is used.
  ** This is a localized expansion of all basis function products.
     Its intended use are Hartree-Fock and hybrid functionals.
     For RPA, MP2, GW, etc., LVL is not yet as accurate. In those cases, check carefully.
  Charge =   0.000000E+00: Neutral system requested explicitly.
  Spin treatment: No spin polarisation.
  Scalar relativistic treatment of kinetic energy: on-site free-atom approximation to ZORA.
  Using the default MBD implementation with analytical forces
  Kohn-Sham eigenvalues and eigenfunctions calculated by the ELPA eigensolver library.
  Threshold for basis singularities:  0.1000E-04
  Number of empty states per atom:        8
  Convergence accuracy of forces:  0.1000E-03
  Convergence accuracy of self-consistent charge density:  0.1000E-04
  Convergence accuracy of sum of eigenvalues:  0.1000E-02
  Convergence accuracy of total energy:  0.1000E-05
  Maximum number of s.-c. iterations  :   600
  Using pulay charge density mixing.
  Pulay mixing - number of memorized iterations:    6
  Charge density mixing - mixing parameter:     0.0800
  Occupation type: Gaussian broadening, width =   0.100000E-01 eV.
  Found k-point grid:        10        10        10
  Found k-point grid multipliers for perturbative DOS :         8         8         8
  Calculating density of states with
  | energy interval :-20.000000 20.000000
  | points & broadening : 10000  0.100000
  Calculating atom-projected density of states with
  | energy interval :-20.000000**********
  | points & broadening :   160  0.100000
  Calculating angular-momentum projected DOS with 
  | energy interval :-20.000000 20.000000
  | points & broadening : 10000  0.100000

  Plot band    1
  | begin  0.500000  0.500000  0.500000
  | end    0.000000  0.000000  0.000000
  | number of points:   50

  Plot band    2
  | begin  0.000000  0.000000  0.000000
  | end    0.000000  0.500000  0.500000
  | number of points:   50

  Plot band    3
  | begin  0.000000  0.500000  0.500000
  | end    0.250000  0.500000  0.750000
  | number of points:   50

  Plot band    4
  | begin  0.250000  0.500000  0.750000
  | end    0.375000  0.375000  0.750000
  | number of points:   50
 
  Reading configuration options for species Si                  .
  | Found nuclear charge :  14.0000
  | Found atomic mass :    28.0855000000000      amu
  | Found l_max for Hartree potential  :   6
  | Found cutoff potl. onset [A], width [A], scale factor :    4.00000    2.00000    1.00000
  | Threshold for basis-dependent cutoff potential is   0.100000E-03
  | Found data for basic radial integration grid :    42 points, outermost radius =    7.000 A
  | Found multiplier for basic radial grid :   2
  | Found angular grid specification: user-specified.
  | Specified grid contains     6 separate shells.
  | Check grid settings after all constraints further below.
  | Found free-atom valence shell :  3 s   2.000
  | Found free-atom valence shell :  3 p   2.000
  | Found free-ion valence shell :  3 s   1.000
  | Found free-ion valence shell :  3 p   1.000
  | Found hydrogenic basis function :  3 d   4.200
  | Found hydrogenic basis function :  2 p   1.400
  | Found hydrogenic basis function :  4 f   6.200
  | Found ionic basis function :  3 s , default cutoff radius.
  | Found hydrogenic basis function :  3 d   9.000
  | Found hydrogenic basis function :  5 g   9.400
  Species Si                  : Missing cutoff potential type.
  Defaulting to exp(1/x)/(1-x)^2 type cutoff potential.
  Species Si: No 'logarithmic' tag. Using default grid for free atom:
  | Default logarithmic grid data [bohr] : 0.1000E-03 0.1000E+03 0.1012E+01
  | Will include ionic basis functions of  2.0-fold positive Si                   ion.
  Species Si: On-site basis accuracy parameter (for Gram-Schmidt orthonormalisation) not specified.
  Using default value basis_acc =  0.1000000E-03.
  Species Si                  : Using default innermost maximum threshold i_radial=  2 for radial functions.
  Species Si                  : Default cutoff onset for free atom density etc. : 0.40000000E+01 AA.
  Species Si                  : Basic radial grid will be enhanced according to radial_multiplier =   2, to contain    85 grid points.
 
  Finished reading input file 'control.in'. Consistency checks are next.
 
  Target number of points in a grid batch is not set. Defaulting to  100
  Method for grid partitioning is not set. Defaulting to parallel hash+maxmin partitioning.
  Batch size limit is not set. Defaulting to    200
  By default, will store active basis functions for each batch.
  If in need of memory, prune_basis_once .false. can be used to disable this option.
  communication_type for Hartree potential was not specified.
  Defaulting to calc_hartree .
  Pulay mixer: Number of initial linear mixing iterations not set.
  Defaulting to    0 iterations.
  Work space size for distributed Hartree potential not set.
  Defaulting to   0.200000E+03 MB.
  Algorithm-dependent basis array size parameters:
  | n_max_pulay                         :        6
  Presetting        40 iterations before the initial mixing cycle
  is restarted anyway using the sc_init_iter criterion / keyword.
  Presetting a factor      1.000 between actual scf density residual
  and density convergence criterion sc_accuracy_rho below which sc_init_iter
  takes no effect.
  Geometry relaxation not requested: no relaxation will be performed.
  Handling of forces: Unphysical translation and rotation will be removed from forces.
  No accuracy limit for integral partition fn. given. Defaulting to  0.1000E-14.
  No threshold value for u(r) in integrations given. Defaulting to  0.1000E-05.
  No accuracy for occupation numbers given. Defaulting to  0.1000E-07.
  No threshold value for occupation numbers given. Defaulting to  0.0000E+00.
  No accuracy for fermi level given. Defaulting to  0.1000E-19.
  Maximum # of iterations to find E_F not set. Defaulting to  200.
 * You have  1000 k-points in your system, but only    32 MPI-tasks available.
 * In this case using ScaLAPACK is not necessary / supported.
 * Switching to default eigenvalue solver (lapack_fast) instead.
  Will not use alltoall communication since running on < 1024 CPUs.
  partition_type (choice of integration weights) for integrals was not specified.
  | Using a version of the partition function of Stratmann and coworkers ('stratmann_smoother').
  | At each grid point, the set of atoms used to build the partition table is smoothly restricted to
  | only those atoms whose free-atom density would be non-zero at that grid point.
  Partitioning for Hartree potential was not defined. Using partition_type for integrals.
  | Adjusted default value of keyword multip_moments_threshold to:       0.10000000E-11
  | This value may affect high angular momentum components of the Hartree potential in periodic systems.
  Angular momentum expansion for Kerker preconditioner not set explicitly.
  | Using default value of   0
  No explicit requirement for turning off preconditioner.
  | By default, it will be turned off when the charge convergence reaches
  | sc_accuracy_rho  =   0.100000E-04
  | sc_accuracy_eev  =   0.100000E-02
  | sc_accuracy_etot =   0.100000E-05
  No special mixing parameter while Kerker preconditioner is on.
  Using default: charge_mix_param =     0.0800.
  No q(lm)/r^(l+1) cutoff set for long-range Hartree potential.
  | Using default value of  0.100000E-09 .
  | Verify using the multipole_threshold keyword.
  Defaulting to new monopole extrapolation.
  Density update method: automatic selection selected.
  Using density matrix based charge density update.
  Using density matrix based charge density update.
  Using packed matrix style: index .
  Defaulting to use time-reversal symmetry for k-point grid.
------------------------------------------------------------


------------------------------------------------------------
          Reading geometry description geometry.in.
------------------------------------------------------------
  Input structure read successfully.
  The structure contains        2 atoms,  and a total of         28.000 electrons.

  Input geometry:
  | Unit cell:
  |         0.000000         2.715500         2.715500
  |         2.715500         0.000000         2.715500
  |         2.715500         2.715500         0.000000
  | Atomic structure:
  |       Atom                x [A]            y [A]            z [A]
  |    1: Species Si             0.000000         0.000000         0.000000
  |    2: Species Si             1.357750         1.357750         1.357750

  Lattice parameters for dimension 3 lattice :     3.840297    3.840297    3.840297   60.000000   60.000000   60.000000

  |

  | The smallest distance between any two atoms is         2.35169198 AA.
  |
  | The first atom of this pair is atom number                      1 .
  | The second atom of this pair is atom number                     2 .
  | Wigner-Seitz cell of the first atom image           0     0     0 .
  | (The Wigner-Seitz cell of the second atom is 0 0 0  by definition.)

  Quantities derived from the lattice vectors:
  | Reciprocal lattice vector 1: -1.156911  1.156911  1.156911
  | Reciprocal lattice vector 2:  1.156911 -1.156911  1.156911
  | Reciprocal lattice vector 3:  1.156911  1.156911 -1.156911
  | Unit cell volume                               :   0.400479E+02  A^3

  Fractional coordinates:
                         L1                L2                L3
       atom_frac         0.00000000        0.00000000        0.00000000  Si
       atom_frac         0.25000000        0.25000000        0.25000000  Si

  Structure-dependent array size parameters: 
  | Maximum number of distinct radial functions  :       11
  | Maximum number of basis functions            :       78
  | Number of Kohn-Sham states (occupied + empty):       22
------------------------------------------------------------

------------------------------------------------------------
          Preparing all fixed parts of the calculation.
------------------------------------------------------------
  Determining machine precision:
    2.225073858507201E-308
  Setting up grids for atomic and cluster calculations.

  Creating wave function, potential, and density for free atoms.

  Species: Si

  List of occupied orbitals and eigenvalues:
    n    l              occ      energy [Ha]    energy [eV]
    1    0           2.0000       -65.775969     -1789.8552
    2    0           2.0000        -5.123557      -139.4191
    3    0           2.0000        -0.394463       -10.7339
    2    1           6.0000        -3.508175       -95.4623
    3    1           2.0000        -0.147003        -4.0002

  Creating fixed part of basis set: Ionic, confined, hydrogenic.
 
  Si                   ion:

  List of free ionic orbitals and eigenvalues:
    n    l      energy [Ha]    energy [eV]
    1    0       -66.641157     -1813.3982
    2    0        -5.964274      -162.2962
    3    0        -1.073878       -29.2217
    2    1        -4.350005      -118.3697
    3    1        -0.776571       -21.1316


  List of ionic basis orbitals and eigenvalues:
    n    l      energy [Ha]    energy [eV]    outer radius [A]
    3    0        -1.073870       -29.2215       4.534782

 
  Si                   hydrogenic:
 
  List of hydrogenic basis orbitals: 
    n    l      effective z      eigenvalue [eV]  inner max. [A]     outer max. [A]     outer radius [A]   
    3    2         4.200000       -26.6668           1.139231           1.139231           5.315897
    2    1         1.400000        -6.6027           1.490786           1.490786           5.447472
    4    3         6.200000       -32.6870           1.368518           1.368518           5.381283
    3    2         9.000000      -122.4512           0.527387           0.527387           3.181181
    5    4         9.400000       -48.0877           1.402391           1.402391           5.251306
 

  Adding cutoff potential to free-atom effective potential.
  Creating atomic-like basis functions for current effective potential.

  Species Si                  :

  List of atomic basis orbitals and eigenvalues:
    n    l      energy [Ha]    energy [eV]    outer radius [A]
    1    0       -65.775969     -1789.8552       0.789468
    2    0        -5.123557      -139.4191       2.815114
    3    0        -0.394463       -10.7339       5.315897
    2    1        -3.508175       -95.4623       3.259919
    3    1        -0.147003        -4.0002       5.447472

  Assembling full basis from fixed parts.
  | Species Si :   atomic orbital   1 s accepted.
  | Species Si :   atomic orbital   2 s accepted.
  | Species Si :    ionic orbital   3 s accepted.
  | Species Si :   atomic orbital   3 s accepted.
  | Species Si :   atomic orbital   2 p accepted.
  | Species Si :   atomic orbital   3 p accepted.
  | Species Si :    hydro orbital   2 p accepted.
  | Species Si :    hydro orbital   3 d accepted.
  | Species Si :    hydro orbital   3 d accepted.
  | Species Si :    hydro orbital   4 f accepted.
  | Species Si :    hydro orbital   5 g accepted.
 
  Basis size parameters after reduction:
  | Total number of radial functions:       11
  | Total number of basis functions :       78
 
  Per-task memory consumption for arrays in subroutine allocate_ext:
  |           3.792652MB.
  Testing on-site integration grid accuracy.
  |  Species  Function  <phi|h_atom|phi> (log., in eV)  <phi|h_atom|phi> (rad., in eV)
           1        1              -1789.8551969286              -1789.8551654044
           1        2               -139.4190834032               -139.4190829157
           1        3                -10.3851269365                -10.3851269662
           1        4                  5.2748560831                  5.2746879749
           1        5                -95.4622899789                -95.4622898460
           1        6                 -4.0035070090                 -4.0036255172
           1        7                  4.8352944695                  4.8334925957
           1        8                 36.0281341134                 36.0281341202
           1        9                 21.0467703617                 21.0467633086
           1       10                 19.1745287805                 19.1745199964
           1       11                 35.6867439284                 35.6867482281

  Preparing densities etc. for the partition functions (integrals / Hartree potential).

  Preparations completed.
  max(cpu_time)          :      0.244 s.
  Wall clock time (cpu1) :      0.255 s.
------------------------------------------------------------

------------------------------------------------------------
          Begin self-consistency loop: Initialization.

          Date     :  20170508, Time     :  200327.012
------------------------------------------------------------

  Initializing index lists of integration centers etc. from given atomic structure:
  Mapping all atomic coordinates to central unit cell.

  Initializing the k-points
          Using symmetry for reducing the k-points
  | k-points reduced from:     1000 to      504
  | Number of k-points                             :       504
  The eigenvectors in the calculations are COMPLEX.
  | K-points in task   0:        15
  | K-points in task   1:        16
  | K-points in task   2:        16
  | K-points in task   3:        16
  | K-points in task   4:        16
  | K-points in task   5:        16
  | K-points in task   6:        16
  | K-points in task   7:        16
  | K-points in task   8:        16
  | K-points in task   9:        16
  | K-points in task  10:        16
  | K-points in task  11:        16
  | K-points in task  12:        16
  | K-points in task  13:        16
  | K-points in task  14:        16
  | K-points in task  15:        16
  | K-points in task  16:        16
  | K-points in task  17:        16
  | K-points in task  18:        16
  | K-points in task  19:        16
  | K-points in task  20:        16
  | K-points in task  21:        16
  | K-points in task  22:        16
  | K-points in task  23:        16
  | K-points in task  24:        16
  | K-points in task  25:        15
  | K-points in task  26:        15
  | K-points in task  27:        15
  | K-points in task  28:        15
  | K-points in task  29:        15
  | K-points in task  30:        15
  | K-points in task  31:        15
  | Number of basis functions in the Hamiltonian integrals :      3591
  | Number of basis functions in a single unit cell        :        78
  | Number of centers in hartree potential         :       594
  | Number of centers in hartree multipole         :       480
  | Number of centers in electron density summation:       336
  | Number of centers in basis integrals           :       378
  | Number of centers in integrals                 :       170
  | Number of centers in hamiltonian               :       336
  | Consuming       1543 KiB for k_phase.
  | Number of super-cells (origin) [n_cells]                     :        1331
  | Number of super-cells (after PM_index) [n_cells]             :         196
  | Number of super-cells in hamiltonian [n_cells_in_hamiltonian]:         196
  | Size of matrix packed + index [n_hamiltonian_matrix_size] :      331057
  Partitioning the integration grid into batches with parallel hashing+maxmin method.
  | Number of batches:      504
  | Maximal batch size:     107
  | Minimal batch size:      51
  | Average batch size:      71.103
  | Standard deviation of batch sizes:      10.624

  Integration load balanced across    32 MPI tasks.
  Work distribution over tasks is as follows:
  Task     0 has       1113 integration points.
  Task     1 has       1166 integration points.
  Task     2 has       1120 integration points.
  Task     3 has       1102 integration points.
  Task     4 has       1092 integration points.
  Task     5 has       1097 integration points.
  Task     6 has       1154 integration points.
  Task     7 has       1115 integration points.
  Task     8 has       1092 integration points.
  Task     9 has       1089 integration points.
  Task    10 has       1098 integration points.
  Task    11 has       1172 integration points.
  Task    12 has       1101 integration points.
  Task    13 has       1123 integration points.
  Task    14 has       1147 integration points.
  Task    15 has       1132 integration points.
  Task    16 has       1118 integration points.
  Task    17 has       1127 integration points.
  Task    18 has       1089 integration points.
  Task    19 has       1078 integration points.
  Task    20 has       1128 integration points.
  Task    21 has       1146 integration points.
  Task    22 has       1128 integration points.
  Task    23 has       1167 integration points.
  Task    24 has       1121 integration points.
  Task    25 has       1124 integration points.
  Task    26 has       1130 integration points.
  Task    27 has       1171 integration points.
  Task    28 has       1079 integration points.
  Task    29 has       1119 integration points.
  Task    30 has       1077 integration points.
  Task    31 has       1121 integration points.
  Initializing partition tables, free-atom densities, potentials, etc. across the integration grid (initialize_grid_storage).
  | initialize_grid_storage: Actual outermost partition radius vs. multipole_radius_free
  | (-- VB: in principle, multipole_radius_free should be larger, hence this output)
  | Species        1: Confinement radius =              6.000000000000000 AA, multipole_radius_free =              6.007157080273940 AA.
  | Species        1: outer_partition_radius set to              6.007157080273940 AA .
  | Original list of interatomic distances with         378 x        378 entries is created.
  | Net number of integration points:    35836
  | of which are non-zero points    :    27252
  | Numerical average free-atom electrostatic potential    :    -13.51703366 eV
  Obtaining max. number of non-zero basis functions in each batch (get_n_compute_maxes).
  | Maximal number of non-zero basis functions:     1349 in task     0
  | Maximal number of non-zero basis functions:     1352 in task     1
  | Maximal number of non-zero basis functions:     1381 in task     2
  | Maximal number of non-zero basis functions:     1465 in task     3
  | Maximal number of non-zero basis functions:     1369 in task     4
  | Maximal number of non-zero basis functions:     1390 in task     5
  | Maximal number of non-zero basis functions:     1383 in task     6
  | Maximal number of non-zero basis functions:     1349 in task     7
  | Maximal number of non-zero basis functions:     1405 in task     8
  | Maximal number of non-zero basis functions:     1376 in task     9
  | Maximal number of non-zero basis functions:     1371 in task    10
  | Maximal number of non-zero basis functions:     1355 in task    11
  | Maximal number of non-zero basis functions:     1355 in task    12
  | Maximal number of non-zero basis functions:     1429 in task    13
  | Maximal number of non-zero basis functions:     1377 in task    14
  | Maximal number of non-zero basis functions:     1370 in task    15
  | Maximal number of non-zero basis functions:     1390 in task    16
  | Maximal number of non-zero basis functions:     1429 in task    17
  | Maximal number of non-zero basis functions:     1370 in task    18
  | Maximal number of non-zero basis functions:     1413 in task    19
  | Maximal number of non-zero basis functions:     1350 in task    20
  | Maximal number of non-zero basis functions:     1332 in task    21
  | Maximal number of non-zero basis functions:     1384 in task    22
  | Maximal number of non-zero basis functions:     1350 in task    23
  | Maximal number of non-zero basis functions:     1405 in task    24
  | Maximal number of non-zero basis functions:     1419 in task    25
  | Maximal number of non-zero basis functions:     1392 in task    26
  | Maximal number of non-zero basis functions:     1394 in task    27
  | Maximal number of non-zero basis functions:     1384 in task    28
  | Maximal number of non-zero basis functions:     1371 in task    29
  | Maximal number of non-zero basis functions:     1413 in task    30
  | Maximal number of non-zero basis functions:     1392 in task    31
  | MBD: Using the same k-grid sampling as DFT
  Integrating Hamiltonian matrix: batch-based integration.
  Time summed over all CPUs for integration: real work       18.602 s, elapsed       19.428 s
  Integrating overlap matrix.
  Time summed over all CPUs for integration: real work       14.649 s, elapsed       15.452 s
  Decreasing sparse matrix size:
   Tolerance:  9.999999824516700E-014
   Hamiltonian matrix
  | Array has   287266 nonzero elements out of   331057 elements
  | Sparsity factor is 0.132
   Overlap matrix
  | Array has   270916 nonzero elements out of   331057 elements
  | Sparsity factor is 0.182
  New size of hamiltonian matrix:      288501

  Solving generalized eigenproblem
  Transforming overlap matrix and checking for singularities.
  Overlap matrix is nonsingular at first k-point:
  | Lowest eigenvalue:  0.630311E-03
  Determining occupation numbers for Kohn-Sham eigenstates.
  | Chemical potential (Fermi level) in eV                 : -.59318443E+01
  | Error in electron count due to remaining E_F inaccuracy: 0.25863756E-11
  | Maximum occupation number of highest empty state:  0.00E+00

  Writing Kohn-Sham eigenvalues.
  K-point:       1 at    0.000000    0.000000    0.000000 (in units of recip. lattice)

  State    Occupation    Eigenvalue [Ha]    Eigenvalue [eV]
      1       2.00000         -65.804971        -1790.64436
      2       2.00000         -65.804971        -1790.64436
      3       2.00000          -5.157172         -140.33380
      4       2.00000          -5.156888         -140.32607
      5       2.00000          -3.541797          -96.37720
      6       2.00000          -3.541797          -96.37720
      7       2.00000          -3.541797          -96.37720
      8       2.00000          -3.541173          -96.36021
      9       2.00000          -3.541173          -96.36021
     10       2.00000          -3.541173          -96.36021
     11       2.00000          -0.676873          -18.41866
     12       2.00000          -0.241529           -6.57233
     13       2.00000          -0.241529           -6.57233
     14       2.00000          -0.241529           -6.57233
     15       0.00000          -0.139417           -3.79373
     16       0.00000          -0.139417           -3.79373
     17       0.00000          -0.139417           -3.79373
     18       0.00000          -0.117879           -3.20766
     19       0.00000           0.056297            1.53192
     20       0.00000           0.056297            1.53192
     21       0.00000           0.081625            2.22112
     22       0.00000           0.214111            5.82625

  What follows are estimated values for band gap, HOMO, LUMO, etc.
  | They are estimated on a discrete k-point grid and not necessarily exact.
  | For converged numbers, create a DOS and/or band structure plot on a denser k-grid.

  Highest occupied state (VBM) at     -6.57233497 eV (relative to internal zero)
  | Occupation number:      2.00000000
  | K-point:       1 at    0.000000    0.000000    0.000000 (in units of recip. lattice)

  Lowest unoccupied state (CBM) at    -5.69483135 eV (relative to internal zero)
  | Occupation number:      0.00000000
  | K-point:      32 at    0.000000    0.400000    0.400000 (in units of recip. lattice)

  ESTIMATED overall HOMO-LUMO gap:      0.87750362 eV between HOMO at k-point 1 and LUMO at k-point 32
  | This appears to be an indirect band gap.
  | Smallest direct gap :      2.77860306 eV for k_point 1 at    0.000000    0.400000    0.400000 (in units of recip. lattice)
  The gap value is above 0.2 eV. Unless you are using a very sparse k-point grid,
  this system is most likely an insulator or a semiconductor.
  Calculating total energy contributions from superposition of free atom densities.

  Total energy components:
  | Sum of eigenvalues            :        -329.74003883 Ha       -8972.68298166 eV
  | XC energy correction          :         -41.73061839 Ha       -1135.54790252 eV
  | XC potential correction       :          53.89327714 Ha        1466.51068626 eV
  | Free-atom electrostatic energy:        -263.16647022 Ha       -7161.12400869 eV
  | Hartree energy correction     :           0.00000000 Ha           0.00000000 eV
  | Entropy correction            :          -0.00000000 Ha          -0.00000000 eV
  | ---------------------------
  | Total energy                  :        -580.74385030 Ha      -15802.84420660 eV
  | Total energy, T -> 0          :        -580.74385030 Ha      -15802.84420660 eV  <-- do not rely on this value for anything but (periodic) metals
  | Electronic free energy        :        -580.74385030 Ha      -15802.84420660 eV

  Derived energy quantities:
  | Kinetic energy                :         582.31111448 Ha       15845.49163466 eV
  | Electrostatic energy          :       -1121.32434639 Ha      -30512.78793875 eV
  | Energy correction for multipole
  | error in Hartree potential    :           0.00000000 Ha           0.00000000 eV
  | Sum of eigenvalues per atom                           :       -4486.34149083 eV
  | Total energy (T->0) per atom                          :       -7901.42210330 eV  <-- do not rely on this value for anything but (periodic) metals
  | Electronic free energy per atom                       :       -7901.42210330 eV
  Initialize hartree_potential_storage
  Max. number of atoms included in rho_multipole:            2

  End scf initialization - timings             :  max(cpu_time)    wall_clock(cpu1)
  | Time for scf. initialization               :        1.960 s           2.081 s
  | Boundary condition initialization          :        0.300 s           0.301 s
  | Integration                                :        1.108 s           1.134 s
  | Solution of K.-S. eqns.                    :        0.280 s           0.327 s
  | Grid partitioning                          :        0.120 s           0.130 s
  | Preloading free-atom quantities on grid    :        0.012 s           0.011 s
  | Free-atom superposition energy             :        0.016 s           0.017 s
  | Total energy evaluation                    :        0.004 s           0.005 s
------------------------------------------------------------

------------------------------------------------------------
          Begin self-consistency iteration #    1

  Date     :  20170508, Time     :  200329.097
------------------------------------------------------------
  Evaluating new KS density using the density matrix
  Evaluating density matrix
  Time summed over all CPUs for getting density from density matrix: real work       29.042 s, elapsed       30.535 s
  Integration grid: deviation in total charge (<rho> - N_e) =   0.000000E+00
  Pulay mixing of updated and previous charge densities.

  Evaluating partitioned Hartree potential by multipole expansion.
  | Analytical far-field extrapolation by fixed multipoles:
  | Hartree multipole sum: apparent total charge =   0.344294E-03
  Summing up the Hartree potential.
  | Estimated reciprocal-space cutoff momentum G_max:         3.32253784 bohr^-1 .
  | Reciprocal lattice points for long-range Hartree potential:     168
  Time summed over all CPUs for potential: real work        9.106 s, elapsed        9.805 s
  | RMS charge density error from multipole expansion :   0.446567E-03
  | Average real-space part of the electrostatic potential :      0.03027379 eV

  Integrating Hamiltonian matrix: batch-based integration.
  Time summed over all CPUs for integration: real work       18.083 s, elapsed       18.884 s

  Solving generalized eigenproblem
  Determining occupation numbers for Kohn-Sham eigenstates.
  | Chemical potential (Fermi level) in eV                 : -.60313835E+01
  | Error in electron count due to remaining E_F inaccuracy: 0.25863756E-11
  | Maximum occupation number of highest empty state:  0.00E+00

  Writing Kohn-Sham eigenvalues.
  K-point:       1 at    0.000000    0.000000    0.000000 (in units of recip. lattice)

  State    Occupation    Eigenvalue [Ha]    Eigenvalue [eV]
      1       2.00000         -65.802039        -1790.56457
      2       2.00000         -65.802039        -1790.56457
      3       2.00000          -5.154835         -140.27021
      4       2.00000          -5.154551         -140.26247
      5       2.00000          -3.539393          -96.31179
      6       2.00000          -3.539393          -96.31179
      7       2.00000          -3.539393          -96.31179
      8       2.00000          -3.538769          -96.29481
      9       2.00000          -3.538769          -96.29481
     10       2.00000          -3.538769          -96.29481
     11       2.00000          -0.675602          -18.38408
     12       2.00000          -0.239864           -6.52703
     13       2.00000          -0.239864           -6.52703
     14       2.00000          -0.239864           -6.52703
     15       0.00000          -0.138420           -3.76661
     16       0.00000          -0.138420           -3.76661
     17       0.00000          -0.138420           -3.76661
     18       0.00000          -0.116068           -3.15837
     19       0.00000           0.057306            1.55937
     20       0.00000           0.057306            1.55937
     21       0.00000           0.082014            2.23172
     22       0.00000           0.214620            5.84012

  What follows are estimated values for band gap, HOMO, LUMO, etc.
  | They are estimated on a discrete k-point grid and not necessarily exact.
  | For converged numbers, create a DOS and/or band structure plot on a denser k-grid.

  Highest occupied state (VBM) at     -6.52703245 eV (relative to internal zero)
  | Occupation number:      2.00000000
  | K-point:       1 at    0.000000    0.000000    0.000000 (in units of recip. lattice)

  Lowest unoccupied state (CBM) at    -5.67813298 eV (relative to internal zero)
  | Occupation number:      0.00000000
  | K-point:      32 at    0.000000    0.400000    0.400000 (in units of recip. lattice)

  ESTIMATED overall HOMO-LUMO gap:      0.84889947 eV between HOMO at k-point 1 and LUMO at k-point 32
  | This appears to be an indirect band gap.
  | Smallest direct gap :      2.76042367 eV for k_point 1 at    0.000000    0.400000    0.400000 (in units of recip. lattice)
  The gap value is above 0.2 eV. Unless you are using a very sparse k-point grid,
  this system is most likely an insulator or a semiconductor.

  Total energy components:
  | Sum of eigenvalues            :        -329.67928644 Ha       -8971.02982490 eV
  | XC energy correction          :         -41.73473435 Ha       -1135.65990353 eV
  | XC potential correction       :          53.89859360 Ha        1466.65535435 eV
  | Free-atom electrostatic energy:        -263.16647022 Ha       -7161.12400869 eV
  | Hartree energy correction     :          -0.06096904 Ha          -1.65905210 eV
  | Entropy correction            :           0.00000000 Ha           0.00000000 eV
  | ---------------------------
  | Total energy                  :        -580.74286646 Ha      -15802.81743487 eV
  | Total energy, T -> 0          :        -580.74286646 Ha      -15802.81743487 eV  <-- do not rely on this value for anything but (periodic) metals
  | Electronic free energy        :        -580.74286646 Ha      -15802.81743487 eV

  Derived energy quantities:
  | Kinetic energy                :         582.31621386 Ha       15845.63039585 eV
  | Electrostatic energy          :       -1121.32434596 Ha      -30512.78792719 eV
  | Energy correction for multipole
  | error in Hartree potential    :          -0.00051700 Ha          -0.01406824 eV
  | Sum of eigenvalues per atom                           :       -4485.51491245 eV
  | Total energy (T->0) per atom                          :       -7901.40871743 eV  <-- do not rely on this value for anything but (periodic) metals
  | Electronic free energy per atom                       :       -7901.40871743 eV

  Self-consistency convergence accuracy:
  | Change of charge density      :  0.1178E+00
  | Change of sum of eigenvalues  :  0.1653E+01 eV
  | Change of total energy        :  0.2677E-01 eV

  End self-consistency iteration #     1       :  max(cpu_time)    wall_clock(cpu1)
  | Time for this iteration                    :        2.184 s           2.211 s
  | Charge density update                      :        1.004 s           1.013 s
  | Density mixing & preconditioning           :        0.072 s           0.075 s
  | Hartree multipole update                   :        0.008 s           0.009 s
  | Hartree multipole summation                :        0.320 s           0.329 s
  | Integration                                :        0.600 s           0.598 s
  | Solution of K.-S. eqns.                    :        0.184 s           0.181 s
  | Total energy evaluation                    :        0.004 s           0.001 s
------------------------------------------------------------

------------------------------------------------------------
          Begin self-consistency iteration #    2

  Date     :  20170508, Time     :  200331.308
------------------------------------------------------------
  Evaluating new KS density using the density matrix
  Evaluating density matrix
  Time summed over all CPUs for getting density from density matrix: real work       28.956 s, elapsed       30.462 s
  Integration grid: deviation in total charge (<rho> - N_e) =   0.000000E+00
  Pulay mixing of updated and previous charge densities.

  Evaluating partitioned Hartree potential by multipole expansion.
  | Analytical far-field extrapolation by fixed multipoles:
  | Hartree multipole sum: apparent total charge =   0.389803E-02
  Summing up the Hartree potential.
  Time summed over all CPUs for potential: real work       10.258 s, elapsed       11.274 s
  | RMS charge density error from multipole expansion :   0.527552E-02
  | Average real-space part of the electrostatic potential :      0.35246675 eV

  Integrating Hamiltonian matrix: batch-based integration.
  Time summed over all CPUs for integration: real work       18.082 s, elapsed       18.900 s

  Solving generalized eigenproblem
  Determining occupation numbers for Kohn-Sham eigenstates.
  | Chemical potential (Fermi level) in eV                 : -.54977424E+01
  | Error in electron count due to remaining E_F inaccuracy: 0.25899283E-11
  | Maximum occupation number of highest empty state:  0.00E+00

  What follows are estimated values for band gap, HOMO, LUMO, etc.
  | They are estimated on a discrete k-point grid and not necessarily exact.
  | For converged numbers, create a DOS and/or band structure plot on a denser k-grid.

  Highest occupied state (VBM) at     -6.00274516 eV (relative to internal zero)
  | Occupation number:      2.00000000
  | K-point:       1 at    0.000000    0.000000    0.000000 (in units of recip. lattice)

  Lowest unoccupied state (CBM) at    -5.44687489 eV (relative to internal zero)
  | Occupation number:      0.00000000
  | K-point:     281 at    0.400000    0.000000    0.400000 (in units of recip. lattice)

  ESTIMATED overall HOMO-LUMO gap:      0.55587027 eV between HOMO at k-point 1 and LUMO at k-point 281
  | This appears to be an indirect band gap.
  | Smallest direct gap :      2.55163918 eV for k_point 1 at    0.400000    0.000000    0.400000 (in units of recip. lattice)
  The gap value is above 0.2 eV. Unless you are using a very sparse k-point grid,
  this system is most likely an insulator or a semiconductor.

  Total energy components:
  | Sum of eigenvalues            :        -329.03593630 Ha       -8953.52337707 eV
  | XC energy correction          :         -41.79213196 Ha       -1137.22177175 eV
  | XC potential correction       :          53.97154392 Ha        1468.64043367 eV
  | Free-atom electrostatic energy:        -263.16647022 Ha       -7161.12400869 eV
  | Hartree energy correction     :          -0.71527434 Ha         -19.46360501 eV
  | Entropy correction            :          -0.00000000 Ha          -0.00000000 eV
  | ---------------------------
  | Total energy                  :        -580.73826890 Ha      -15802.69232885 eV
  | Total energy, T -> 0          :        -580.73826890 Ha      -15802.69232885 eV  <-- do not rely on this value for anything but (periodic) metals
  | Electronic free energy        :        -580.73826890 Ha      -15802.69232885 eV

  Derived energy quantities:
  | Kinetic energy                :         582.34180036 Ha       15846.32664010 eV
  | Electrostatic energy          :       -1121.28793730 Ha      -30511.79719721 eV
  | Energy correction for multipole
  | error in Hartree potential    :          -0.00615853 Ha          -0.16758205 eV
  | Sum of eigenvalues per atom                           :       -4476.76168854 eV
  | Total energy (T->0) per atom                          :       -7901.34616443 eV  <-- do not rely on this value for anything but (periodic) metals
  | Electronic free energy per atom                       :       -7901.34616443 eV

  Self-consistency convergence accuracy:
  | Change of charge density      :  0.1079E+00
  | Change of sum of eigenvalues  :  0.1751E+02 eV
  | Change of total energy        :  0.1251E+00 eV

  End self-consistency iteration #     2       :  max(cpu_time)    wall_clock(cpu1)
  | Time for this iteration                    :        2.212 s           2.213 s
  | Charge density update                      :        1.000 s           0.997 s
  | Density mixing & preconditioning           :        0.068 s           0.067 s
  | Hartree multipole update                   :        0.004 s           0.004 s
  | Hartree multipole summation                :        0.368 s           0.365 s
  | Integration                                :        0.600 s           0.597 s
  | Solution of K.-S. eqns.                    :        0.184 s           0.181 s
  | Total energy evaluation                    :        0.004 s           0.001 s
------------------------------------------------------------

------------------------------------------------------------
          Begin self-consistency iteration #    3

  Date     :  20170508, Time     :  200333.522
------------------------------------------------------------
  Evaluating new KS density using the density matrix
  Evaluating density matrix
  Time summed over all CPUs for getting density from density matrix: real work       29.022 s, elapsed       30.542 s
  Integration grid: deviation in total charge (<rho> - N_e) =   0.000000E+00
  Pulay mixing of updated and previous charge densities.

  Evaluating partitioned Hartree potential by multipole expansion.
  | Analytical far-field extrapolation by fixed multipoles:
  | Hartree multipole sum: apparent total charge =   0.296909E-02
  Summing up the Hartree potential.
  Time summed over all CPUs for potential: real work       10.266 s, elapsed       11.276 s
  | RMS charge density error from multipole expansion :   0.539667E-02
  | Average real-space part of the electrostatic potential :      0.32466853 eV

  Integrating Hamiltonian matrix: batch-based integration.
  Time summed over all CPUs for integration: real work       18.078 s, elapsed       18.872 s

  Solving generalized eigenproblem
  Determining occupation numbers for Kohn-Sham eigenstates.
  | Chemical potential (Fermi level) in eV                 : -.55360304E+01
  | Error in electron count due to remaining E_F inaccuracy: 0.25863756E-11
  | Maximum occupation number of highest empty state:  0.00E+00

  What follows are estimated values for band gap, HOMO, LUMO, etc.
  | They are estimated on a discrete k-point grid and not necessarily exact.
  | For converged numbers, create a DOS and/or band structure plot on a denser k-grid.

  Highest occupied state (VBM) at     -6.04609057 eV (relative to internal zero)
  | Occupation number:      2.00000000
  | K-point:       1 at    0.000000    0.000000    0.000000 (in units of recip. lattice)

  Lowest unoccupied state (CBM) at    -5.46112948 eV (relative to internal zero)
  | Occupation number:      0.00000000
  | K-point:     281 at    0.400000    0.000000    0.400000 (in units of recip. lattice)

  ESTIMATED overall HOMO-LUMO gap:      0.58496109 eV between HOMO at k-point 1 and LUMO at k-point 281
  | This appears to be an indirect band gap.
  | Smallest direct gap :      2.56354497 eV for k_point 1 at    0.400000    0.000000    0.400000 (in units of recip. lattice)
  The gap value is above 0.2 eV. Unless you are using a very sparse k-point grid,
  this system is most likely an insulator or a semiconductor.

  Total energy components:
  | Sum of eigenvalues            :        -329.18546932 Ha       -8957.59237753 eV
  | XC energy correction          :         -41.78126245 Ha       -1136.92599734 eV
  | XC potential correction       :          53.95745705 Ha        1468.25711050 eV
  | Free-atom electrostatic energy:        -263.16647022 Ha       -7161.12400869 eV
  | Hartree energy correction     :          -0.56247699 Ha         -15.30577769 eV
  | Entropy correction            :          -0.00000000 Ha          -0.00000000 eV
  | ---------------------------
  | Total energy                  :        -580.73822193 Ha      -15802.69105075 eV
  | Total energy, T -> 0          :        -580.73822193 Ha      -15802.69105075 eV  <-- do not rely on this value for anything but (periodic) metals
  | Electronic free energy        :        -580.73822193 Ha      -15802.69105075 eV

  Derived energy quantities:
  | Kinetic energy                :         582.21898269 Ha       15842.98460121 eV
  | Electrostatic energy          :       -1121.17594217 Ha      -30508.74965463 eV
  | Energy correction for multipole
  | error in Hartree potential    :          -0.00615925 Ha          -0.16760170 eV
  | Sum of eigenvalues per atom                           :       -4478.79618877 eV
  | Total energy (T->0) per atom                          :       -7901.34552538 eV  <-- do not rely on this value for anything but (periodic) metals
  | Electronic free energy per atom                       :       -7901.34552538 eV

  Self-consistency convergence accuracy:
  | Change of charge density      :  0.1324E-01
  | Change of sum of eigenvalues  : -0.4069E+01 eV
  | Change of total energy        :  0.1278E-02 eV

  End self-consistency iteration #     3       :  max(cpu_time)    wall_clock(cpu1)
  | Time for this iteration                    :        2.212 s           2.211 s
  | Charge density update                      :        1.000 s           0.998 s
  | Density mixing & preconditioning           :        0.064 s           0.064 s
  | Hartree multipole update                   :        0.008 s           0.004 s
  | Hartree multipole summation                :        0.368 s           0.365 s
  | Integration                                :        0.596 s           0.597 s
  | Solution of K.-S. eqns.                    :        0.184 s           0.181 s
  | Total energy evaluation                    :        0.004 s           0.001 s
------------------------------------------------------------

------------------------------------------------------------
          Begin self-consistency iteration #    4

  Date     :  20170508, Time     :  200335.733
------------------------------------------------------------
  Evaluating new KS density using the density matrix
  Evaluating density matrix
  Time summed over all CPUs for getting density from density matrix: real work       29.018 s, elapsed       30.536 s
  Integration grid: deviation in total charge (<rho> - N_e) =  -3.552714E-15
  Pulay mixing of updated and previous charge densities.

  Evaluating partitioned Hartree potential by multipole expansion.
  | Analytical far-field extrapolation by fixed multipoles:
  | Hartree multipole sum: apparent total charge =   0.246036E-02
  Summing up the Hartree potential.
  Time summed over all CPUs for potential: real work       10.267 s, elapsed       11.279 s
  | RMS charge density error from multipole expansion :   0.582751E-02
  | Average real-space part of the electrostatic potential :      0.32642058 eV

  Integrating Hamiltonian matrix: batch-based integration.
  Time summed over all CPUs for integration: real work       18.076 s, elapsed       18.894 s

  Solving generalized eigenproblem
  Determining occupation numbers for Kohn-Sham eigenstates.
  | Chemical potential (Fermi level) in eV                 : -.55307407E+01
  | Error in electron count due to remaining E_F inaccuracy: 0.25863756E-11
  | Maximum occupation number of highest empty state:  0.00E+00

  What follows are estimated values for band gap, HOMO, LUMO, etc.
  | They are estimated on a discrete k-point grid and not necessarily exact.
  | For converged numbers, create a DOS and/or band structure plot on a denser k-grid.

  Highest occupied state (VBM) at     -6.03960235 eV (relative to internal zero)
  | Occupation number:      2.00000000
  | K-point:       1 at    0.000000    0.000000    0.000000 (in units of recip. lattice)

  Lowest unoccupied state (CBM) at    -5.45094130 eV (relative to internal zero)
  | Occupation number:      0.00000000
  | K-point:     281 at    0.400000    0.000000    0.400000 (in units of recip. lattice)

  ESTIMATED overall HOMO-LUMO gap:      0.58866105 eV between HOMO at k-point 1 and LUMO at k-point 281
  | This appears to be an indirect band gap.
  | Smallest direct gap :      2.55772039 eV for k_point 1 at    0.400000    0.000000    0.400000 (in units of recip. lattice)
  The gap value is above 0.2 eV. Unless you are using a very sparse k-point grid,
  this system is most likely an insulator or a semiconductor.

  Total energy components:
  | Sum of eigenvalues            :        -329.24959321 Ha       -8959.33727718 eV
  | XC energy correction          :         -41.77848159 Ha       -1136.85032646 eV
  | XC potential correction       :          53.95365289 Ha        1468.15359391 eV
  | Free-atom electrostatic energy:        -263.16647022 Ha       -7161.12400869 eV
  | Hartree energy correction     :          -0.49733743 Ha         -13.53324008 eV
  | Entropy correction            :          -0.00000000 Ha          -0.00000000 eV
  | ---------------------------
  | Total energy                  :        -580.73822956 Ha      -15802.69125849 eV
  | Total energy, T -> 0          :        -580.73822956 Ha      -15802.69125849 eV  <-- do not rely on this value for anything but (periodic) metals
  | Electronic free energy        :        -580.73822956 Ha      -15802.69125849 eV

  Derived energy quantities:
  | Kinetic energy                :         582.13472047 Ha       15840.69170959 eV
  | Electrostatic energy          :       -1121.09446844 Ha      -30506.53264163 eV
  | Energy correction for multipole
  | error in Hartree potential    :          -0.00655679 Ha          -0.17841938 eV
  | Sum of eigenvalues per atom                           :       -4479.66863859 eV
  | Total energy (T->0) per atom                          :       -7901.34562925 eV  <-- do not rely on this value for anything but (periodic) metals
  | Electronic free energy per atom                       :       -7901.34562925 eV

  Self-consistency convergence accuracy:
  | Change of charge density      :  0.7239E-02
  | Change of sum of eigenvalues  : -0.1745E+01 eV
  | Change of total energy        : -0.2077E-03 eV

  End self-consistency iteration #     4       :  max(cpu_time)    wall_clock(cpu1)
  | Time for this iteration                    :        2.212 s           2.212 s
  | Charge density update                      :        1.000 s           0.998 s
  | Density mixing & preconditioning           :        0.064 s           0.064 s
  | Hartree multipole update                   :        0.008 s           0.004 s
  | Hartree multipole summation                :        0.368 s           0.366 s
  | Integration                                :        0.600 s           0.597 s
  | Solution of K.-S. eqns.                    :        0.184 s           0.181 s
  | Total energy evaluation                    :        0.004 s           0.001 s
------------------------------------------------------------

------------------------------------------------------------
          Begin self-consistency iteration #    5

  Date     :  20170508, Time     :  200337.945
------------------------------------------------------------
  Evaluating new KS density using the density matrix
  Evaluating density matrix
  Time summed over all CPUs for getting density from density matrix: real work       29.023 s, elapsed       30.550 s
  Integration grid: deviation in total charge (<rho> - N_e) =  -7.105427E-15
  Pulay mixing of updated and previous charge densities.

  Evaluating partitioned Hartree potential by multipole expansion.
  | Analytical far-field extrapolation by fixed multipoles:
  | Hartree multipole sum: apparent total charge =   0.169110E-02
  Summing up the Hartree potential.
  Time summed over all CPUs for potential: real work       10.269 s, elapsed       11.293 s
  | RMS charge density error from multipole expansion :   0.588769E-02
  | Average real-space part of the electrostatic potential :      0.32452090 eV

  Integrating Hamiltonian matrix: batch-based integration.
  Time summed over all CPUs for integration: real work       18.082 s, elapsed       18.909 s

  Solving generalized eigenproblem
  Determining occupation numbers for Kohn-Sham eigenstates.
  | Chemical potential (Fermi level) in eV                 : -.55337119E+01
  | Error in electron count due to remaining E_F inaccuracy: 0.25863756E-11
  | Maximum occupation number of highest empty state:  0.00E+00

  What follows are estimated values for band gap, HOMO, LUMO, etc.
  | They are estimated on a discrete k-point grid and not necessarily exact.
  | For converged numbers, create a DOS and/or band structure plot on a denser k-grid.

  Highest occupied state (VBM) at     -6.04282922 eV (relative to internal zero)
  | Occupation number:      2.00000000
  | K-point:       1 at    0.000000    0.000000    0.000000 (in units of recip. lattice)

  Lowest unoccupied state (CBM) at    -5.45163056 eV (relative to internal zero)
  | Occupation number:      0.00000000
  | K-point:     281 at    0.400000    0.000000    0.400000 (in units of recip. lattice)

  ESTIMATED overall HOMO-LUMO gap:      0.59119866 eV between HOMO at k-point 1 and LUMO at k-point 281
  | This appears to be an indirect band gap.
  | Smallest direct gap :      2.55882748 eV for k_point 1 at    0.400000    0.000000    0.400000 (in units of recip. lattice)
  The gap value is above 0.2 eV. Unless you are using a very sparse k-point grid,
  this system is most likely an insulator or a semiconductor.

  Total energy components:
  | Sum of eigenvalues            :        -329.25163132 Ha       -8959.39273711 eV
  | XC energy correction          :         -41.78086581 Ha       -1136.91520421 eV
  | XC potential correction       :          53.95658221 Ha        1468.23330494 eV
  | Free-atom electrostatic energy:        -263.16647022 Ha       -7161.12400869 eV
  | Hartree energy correction     :          -0.49584384 Ha         -13.49259752 eV
  | Entropy correction            :          -0.00000000 Ha          -0.00000000 eV
  | ---------------------------
  | Total energy                  :        -580.73822898 Ha      -15802.69124258 eV
  | Total energy, T -> 0          :        -580.73822898 Ha      -15802.69124258 eV  <-- do not rely on this value for anything but (periodic) metals
  | Electronic free energy        :        -580.73822898 Ha      -15802.69124258 eV

  Derived energy quantities:
  | Kinetic energy                :         582.18017956 Ha       15841.92871440 eV
  | Electrostatic energy          :       -1121.13754274 Ha      -30507.70475277 eV
  | Energy correction for multipole
  | error in Hartree potential    :          -0.00660377 Ha          -0.17969781 eV
  | Sum of eigenvalues per atom                           :       -4479.69636855 eV
  | Total energy (T->0) per atom                          :       -7901.34562129 eV  <-- do not rely on this value for anything but (periodic) metals
  | Electronic free energy per atom                       :       -7901.34562129 eV

  Self-consistency convergence accuracy:
  | Change of charge density      :  0.2934E-02
  | Change of sum of eigenvalues  : -0.5546E-01 eV
  | Change of total energy        :  0.1591E-04 eV

  End self-consistency iteration #     5       :  max(cpu_time)    wall_clock(cpu1)
  | Time for this iteration                    :        2.216 s           2.215 s
  | Charge density update                      :        1.000 s           0.999 s
  | Density mixing & preconditioning           :        0.064 s           0.064 s
  | Hartree multipole update                   :        0.008 s           0.004 s
  | Hartree multipole summation                :        0.368 s           0.366 s
  | Integration                                :        0.600 s           0.598 s
  | Solution of K.-S. eqns.                    :        0.184 s           0.182 s
  | Total energy evaluation                    :        0.004 s           0.001 s
------------------------------------------------------------

------------------------------------------------------------
          Begin self-consistency iteration #    6

  Date     :  20170508, Time     :  200340.160
------------------------------------------------------------
  Evaluating new KS density using the density matrix
  Evaluating density matrix
  Time summed over all CPUs for getting density from density matrix: real work       29.006 s, elapsed       30.518 s
  Integration grid: deviation in total charge (<rho> - N_e) =  -7.105427E-15
  Pulay mixing of updated and previous charge densities.

  Evaluating partitioned Hartree potential by multipole expansion.
  | Analytical far-field extrapolation by fixed multipoles:
  | Hartree multipole sum: apparent total charge =   0.169513E-02
  Summing up the Hartree potential.
  Time summed over all CPUs for potential: real work       10.262 s, elapsed       11.273 s
  | RMS charge density error from multipole expansion :   0.585100E-02
  | Average real-space part of the electrostatic potential :      0.32084009 eV

  Integrating Hamiltonian matrix: batch-based integration.
  Time summed over all CPUs for integration: real work       18.079 s, elapsed       18.948 s

  Solving generalized eigenproblem
  Determining occupation numbers for Kohn-Sham eigenstates.
  | Chemical potential (Fermi level) in eV                 : -.55392370E+01
  | Error in electron count due to remaining E_F inaccuracy: 0.25863756E-11
  | Maximum occupation number of highest empty state:  0.00E+00

  What follows are estimated values for band gap, HOMO, LUMO, etc.
  | They are estimated on a discrete k-point grid and not necessarily exact.
  | For converged numbers, create a DOS and/or band structure plot on a denser k-grid.

  Highest occupied state (VBM) at     -6.04887968 eV (relative to internal zero)
  | Occupation number:      2.00000000
  | K-point:       1 at    0.000000    0.000000    0.000000 (in units of recip. lattice)

  Lowest unoccupied state (CBM) at    -5.45458377 eV (relative to internal zero)
  | Occupation number:      0.00000000
  | K-point:     281 at    0.400000    0.000000    0.400000 (in units of recip. lattice)

  ESTIMATED overall HOMO-LUMO gap:      0.59429590 eV between HOMO at k-point 1 and LUMO at k-point 281
  | This appears to be an indirect band gap.
  | Smallest direct gap :      2.56107537 eV for k_point 1 at    0.400000    0.000000    0.400000 (in units of recip. lattice)
  The gap value is above 0.2 eV. Unless you are using a very sparse k-point grid,
  this system is most likely an insulator or a semiconductor.

  Total energy components:
  | Sum of eigenvalues            :        -329.26113073 Ha       -8959.65122926 eV
  | XC energy correction          :         -41.78003564 Ha       -1136.89261416 eV
  | XC potential correction       :          53.95552099 Ha        1468.20442745 eV
  | Free-atom electrostatic energy:        -263.16647022 Ha       -7161.12400869 eV
  | Hartree energy correction     :          -0.48611095 Ha         -13.22775197 eV
  | Entropy correction            :          -0.00000000 Ha          -0.00000000 eV
  | ---------------------------
  | Total energy                  :        -580.73822655 Ha      -15802.69117663 eV
  | Total energy, T -> 0          :        -580.73822655 Ha      -15802.69117663 eV  <-- do not rely on this value for anything but (periodic) metals
  | Electronic free energy        :        -580.73822655 Ha      -15802.69117663 eV

  Derived energy quantities:
  | Kinetic energy                :         582.17878747 Ha       15841.89083360 eV
  | Electrostatic energy          :       -1121.13697839 Ha      -30507.68939607 eV
  | Energy correction for multipole
  | error in Hartree potential    :          -0.00655402 Ha          -0.17834386 eV
  | Sum of eigenvalues per atom                           :       -4479.82561463 eV
  | Total energy (T->0) per atom                          :       -7901.34558831 eV  <-- do not rely on this value for anything but (periodic) metals
  | Electronic free energy per atom                       :       -7901.34558831 eV

  Self-consistency convergence accuracy:
  | Change of charge density      :  0.7531E-03
  | Change of sum of eigenvalues  : -0.2585E+00 eV
  | Change of total energy        :  0.6595E-04 eV

  End self-consistency iteration #     6       :  max(cpu_time)    wall_clock(cpu1)
  | Time for this iteration                    :        2.216 s           2.212 s
  | Charge density update                      :        1.000 s           0.997 s
  | Density mixing & preconditioning           :        0.064 s           0.064 s
  | Hartree multipole update                   :        0.008 s           0.004 s
  | Hartree multipole summation                :        0.368 s           0.366 s
  | Integration                                :        0.600 s           0.599 s
  | Solution of K.-S. eqns.                    :        0.180 s           0.180 s
  | Total energy evaluation                    :        0.004 s           0.001 s
------------------------------------------------------------

------------------------------------------------------------
          Begin self-consistency iteration #    7

  Date     :  20170508, Time     :  200342.374
------------------------------------------------------------
  Evaluating new KS density using the density matrix
  Evaluating density matrix
  Time summed over all CPUs for getting density from density matrix: real work       29.001 s, elapsed       30.495 s
  Integration grid: deviation in total charge (<rho> - N_e) =   0.000000E+00
  Pulay mixing of updated and previous charge densities.

  Evaluating partitioned Hartree potential by multipole expansion.
  | Analytical far-field extrapolation by fixed multipoles:
  | Hartree multipole sum: apparent total charge =   0.248732E-02
  Summing up the Hartree potential.
  Time summed over all CPUs for potential: real work       10.260 s, elapsed       11.280 s
  | RMS charge density error from multipole expansion :   0.586803E-02
  | Average real-space part of the electrostatic potential :      0.32121299 eV

  Integrating Hamiltonian matrix: batch-based integration.
  Time summed over all CPUs for integration: real work       18.081 s, elapsed       18.916 s

  Solving generalized eigenproblem
  Determining occupation numbers for Kohn-Sham eigenstates.
  | Chemical potential (Fermi level) in eV                 : -.55370842E+01
  | Error in electron count due to remaining E_F inaccuracy: 0.25863756E-11
  | Maximum occupation number of highest empty state:  0.00E+00

  What follows are estimated values for band gap, HOMO, LUMO, etc.
  | They are estimated on a discrete k-point grid and not necessarily exact.
  | For converged numbers, create a DOS and/or band structure plot on a denser k-grid.

  Highest occupied state (VBM) at     -6.04658439 eV (relative to internal zero)
  | Occupation number:      2.00000000
  | K-point:       1 at    0.000000    0.000000    0.000000 (in units of recip. lattice)

  Lowest unoccupied state (CBM) at    -5.45311620 eV (relative to internal zero)
  | Occupation number:      0.00000000
  | K-point:     281 at    0.400000    0.000000    0.400000 (in units of recip. lattice)

  ESTIMATED overall HOMO-LUMO gap:      0.59346819 eV between HOMO at k-point 1 and LUMO at k-point 281
  | This appears to be an indirect band gap.
  | Smallest direct gap :      2.56038401 eV for k_point 1 at    0.400000    0.000000    0.400000 (in units of recip. lattice)
  The gap value is above 0.2 eV. Unless you are using a very sparse k-point grid,
  this system is most likely an insulator or a semiconductor.

  Total energy components:
  | Sum of eigenvalues            :        -329.25899551 Ha       -8959.59312679 eV
  | XC energy correction          :         -41.77992574 Ha       -1136.88962362 eV
  | XC potential correction       :          53.95536913 Ha        1468.20029515 eV
  | Free-atom electrostatic energy:        -263.16647022 Ha       -7161.12400869 eV
  | Hartree energy correction     :          -0.48820455 Ha         -13.28472168 eV
  | Entropy correction            :          -0.00000000 Ha          -0.00000000 eV
  | ---------------------------
  | Total energy                  :        -580.73822689 Ha      -15802.69118563 eV
  | Total energy, T -> 0          :        -580.73822689 Ha      -15802.69118563 eV  <-- do not rely on this value for anything but (periodic) metals
  | Electronic free energy        :        -580.73822689 Ha      -15802.69118563 eV

  Derived energy quantities:
  | Kinetic energy                :         582.17781023 Ha       15841.86424157 eV
  | Electrostatic energy          :       -1121.13611138 Ha      -30507.66580358 eV
  | Energy correction for multipole
  | error in Hartree potential    :          -0.00656333 Ha          -0.17859727 eV
  | Sum of eigenvalues per atom                           :       -4479.79656339 eV
  | Total energy (T->0) per atom                          :       -7901.34559282 eV  <-- do not rely on this value for anything but (periodic) metals
  | Electronic free energy per atom                       :       -7901.34559282 eV

  Self-consistency convergence accuracy:
  | Change of charge density      :  0.3407E-03
  | Change of sum of eigenvalues  :  0.5810E-01 eV
  | Change of total energy        : -0.9001E-05 eV

  End self-consistency iteration #     7       :  max(cpu_time)    wall_clock(cpu1)
  | Time for this iteration                    :        2.208 s           2.209 s
  | Charge density update                      :        1.000 s           0.997 s
  | Density mixing & preconditioning           :        0.064 s           0.062 s
  | Hartree multipole update                   :        0.008 s           0.004 s
  | Hartree multipole summation                :        0.368 s           0.366 s
  | Integration                                :        0.600 s           0.598 s
  | Solution of K.-S. eqns.                    :        0.180 s           0.180 s
  | Total energy evaluation                    :        0.004 s           0.001 s
------------------------------------------------------------

------------------------------------------------------------
          Begin self-consistency iteration #    8

  Date     :  20170508, Time     :  200344.584
------------------------------------------------------------
  Evaluating new KS density using the density matrix
  Evaluating density matrix
  Time summed over all CPUs for getting density from density matrix: real work       29.009 s, elapsed       30.539 s
  Integration grid: deviation in total charge (<rho> - N_e) =  -7.105427E-15
  Pulay mixing of updated and previous charge densities.

  Evaluating partitioned Hartree potential by multipole expansion.
  | Analytical far-field extrapolation by fixed multipoles:
  | Hartree multipole sum: apparent total charge =   0.243313E-02
  Summing up the Hartree potential.
  Time summed over all CPUs for potential: real work       10.266 s, elapsed       11.292 s
  | RMS charge density error from multipole expansion :   0.586746E-02
  | Average real-space part of the electrostatic potential :      0.32113175 eV

  Integrating Hamiltonian matrix: batch-based integration.
  Time summed over all CPUs for integration: real work       18.117 s, elapsed       19.123 s

  Solving generalized eigenproblem
  Determining occupation numbers for Kohn-Sham eigenstates.
  | Chemical potential (Fermi level) in eV                 : -.55373052E+01
  | Error in electron count due to remaining E_F inaccuracy: 0.25863756E-11
  | Maximum occupation number of highest empty state:  0.00E+00

  What follows are estimated values for band gap, HOMO, LUMO, etc.
  | They are estimated on a discrete k-point grid and not necessarily exact.
  | For converged numbers, create a DOS and/or band structure plot on a denser k-grid.

  Highest occupied state (VBM) at     -6.04682066 eV (relative to internal zero)
  | Occupation number:      2.00000000
  | K-point:       1 at    0.000000    0.000000    0.000000 (in units of recip. lattice)

  Lowest unoccupied state (CBM) at    -5.45323459 eV (relative to internal zero)
  | Occupation number:      0.00000000
  | K-point:     281 at    0.400000    0.000000    0.400000 (in units of recip. lattice)

  ESTIMATED overall HOMO-LUMO gap:      0.59358608 eV between HOMO at k-point 1 and LUMO at k-point 281
  | This appears to be an indirect band gap.
  | Smallest direct gap :      2.56045238 eV for k_point 1 at    0.400000    0.000000    0.400000 (in units of recip. lattice)
  The gap value is above 0.2 eV. Unless you are using a very sparse k-point grid,
  this system is most likely an insulator or a semiconductor.

  Total energy components:
  | Sum of eigenvalues            :        -329.25944588 Ha       -8959.60538201 eV
  | XC energy correction          :         -41.77991675 Ha       -1136.88937900 eV
  | XC potential correction       :          53.95535747 Ha        1468.19997785 eV
  | Free-atom electrostatic energy:        -263.16647022 Ha       -7161.12400869 eV
  | Hartree energy correction     :          -0.48775150 Ha         -13.27239349 eV
  | Entropy correction            :          -0.00000000 Ha          -0.00000000 eV
  | ---------------------------
  | Total energy                  :        -580.73822687 Ha      -15802.69118534 eV
  | Total energy, T -> 0          :        -580.73822687 Ha      -15802.69118534 eV  <-- do not rely on this value for anything but (periodic) metals
  | Electronic free energy        :        -580.73822687 Ha      -15802.69118534 eV

  Derived energy quantities:
  | Kinetic energy                :         582.17771692 Ha       15841.86170234 eV
  | Electrostatic energy          :       -1121.13602704 Ha      -30507.66350867 eV
  | Energy correction for multipole
  | error in Hartree potential    :          -0.00656305 Ha          -0.17858976 eV
  | Sum of eigenvalues per atom                           :       -4479.80269101 eV
  | Total energy (T->0) per atom                          :       -7901.34559267 eV  <-- do not rely on this value for anything but (periodic) metals
[...]
  Processing batch of k-points:     5     2     1
  Processing batch of k-points:     5     2     2
  Processing batch of k-points:     5     2     3
  Processing batch of k-points:     5     2     4
  Processing batch of k-points:     5     2     5
  Processing batch of k-points:     5     2     6
  Processing batch of k-points:     5     2     7
  Processing batch of k-points:     5     2     8
  Processing batch of k-points:     5     3     1
  Processing batch of k-points:     5     3     2
  Processing batch of k-points:     5     3     3
  Processing batch of k-points:     5     3     4
  Processing batch of k-points:     5     3     5
  Processing batch of k-points:     5     3     6
  Processing batch of k-points:     5     3     7
  Processing batch of k-points:     5     3     8
  Processing batch of k-points:     5     4     1
  Processing batch of k-points:     5     4     2
  Processing batch of k-points:     5     4     3
  Processing batch of k-points:     5     4     4
  Processing batch of k-points:     5     4     5
  Processing batch of k-points:     5     4     6
  Processing batch of k-points:     5     4     7
  Processing batch of k-points:     5     4     8
  Processing batch of k-points:     5     5     1
  Processing batch of k-points:     5     5     2
  Processing batch of k-points:     5     5     3
  Processing batch of k-points:     5     5     4
  Processing batch of k-points:     5     5     5
  Processing batch of k-points:     5     5     6
  Processing batch of k-points:     5     5     7
  Processing batch of k-points:     5     5     8
  Processing batch of k-points:     5     6     1
  Processing batch of k-points:     5     6     2
  Processing batch of k-points:     5     6     3
  Processing batch of k-points:     5     6     4
  Processing batch of k-points:     5     6     5
  Processing batch of k-points:     5     6     6
  Processing batch of k-points:     5     6     7
  Processing batch of k-points:     5     6     8
  Processing batch of k-points:     5     7     1
  Processing batch of k-points:     5     7     2
  Processing batch of k-points:     5     7     3
  Processing batch of k-points:     5     7     4
  Processing batch of k-points:     5     7     5
  Processing batch of k-points:     5     7     6
  Processing batch of k-points:     5     7     7
  Processing batch of k-points:     5     7     8
  Processing batch of k-points:     5     8     1
  Processing batch of k-points:     5     8     2
  Processing batch of k-points:     5     8     3
  Processing batch of k-points:     5     8     4
  Processing batch of k-points:     5     8     5
  Processing batch of k-points:     5     8     6
  Processing batch of k-points:     5     8     7
  Processing batch of k-points:     5     8     8
  Processing batch of k-points:     6     1     1
  Processing batch of k-points:     6     1     2
  Processing batch of k-points:     6     1     3
  Processing batch of k-points:     6     1     4
  Processing batch of k-points:     6     1     5
  Processing batch of k-points:     6     1     6
  Processing batch of k-points:     6     1     7
  Processing batch of k-points:     6     1     8
  Processing batch of k-points:     6     2     1
  Processing batch of k-points:     6     2     2
  Processing batch of k-points:     6     2     3
  Processing batch of k-points:     6     2     4
  Processing batch of k-points:     6     2     5
  Processing batch of k-points:     6     2     6
  Processing batch of k-points:     6     2     7
  Processing batch of k-points:     6     2     8
  Processing batch of k-points:     6     3     1
  Processing batch of k-points:     6     3     2
  Processing batch of k-points:     6     3     3
  Processing batch of k-points:     6     3     4
  Processing batch of k-points:     6     3     5
  Processing batch of k-points:     6     3     6
  Processing batch of k-points:     6     3     7
  Processing batch of k-points:     6     3     8
  Processing batch of k-points:     6     4     1
  Processing batch of k-points:     6     4     2
  Processing batch of k-points:     6     4     3
  Processing batch of k-points:     6     4     4
  Processing batch of k-points:     6     4     5
  Processing batch of k-points:     6     4     6
  Processing batch of k-points:     6     4     7
  Processing batch of k-points:     6     4     8
  Processing batch of k-points:     6     5     1
  Processing batch of k-points:     6     5     2
  Processing batch of k-points:     6     5     3
  Processing batch of k-points:     6     5     4
  Processing batch of k-points:     6     5     5
  Processing batch of k-points:     6     5     6
  Processing batch of k-points:     6     5     7
  Processing batch of k-points:     6     5     8
  Processing batch of k-points:     6     6     1
  Processing batch of k-points:     6     6     2
  Processing batch of k-points:     6     6     3
  Processing batch of k-points:     6     6     4
  Processing batch of k-points:     6     6     5
  Processing batch of k-points:     6     6     6
  Processing batch of k-points:     6     6     7
  Processing batch of k-points:     6     6     8
  Processing batch of k-points:     6     7     1
  Processing batch of k-points:     6     7     2
  Processing batch of k-points:     6     7     3
  Processing batch of k-points:     6     7     4
  Processing batch of k-points:     6     7     5
  Processing batch of k-points:     6     7     6
  Processing batch of k-points:     6     7     7
  Processing batch of k-points:     6     7     8
  Processing batch of k-points:     6     8     1
  Processing batch of k-points:     6     8     2
  Processing batch of k-points:     6     8     3
  Processing batch of k-points:     6     8     4
  Processing batch of k-points:     6     8     5
  Processing batch of k-points:     6     8     6
  Processing batch of k-points:     6     8     7
  Processing batch of k-points:     6     8     8
  Processing batch of k-points:     7     1     1
  Processing batch of k-points:     7     1     2
  Processing batch of k-points:     7     1     3
  Processing batch of k-points:     7     1     4
  Processing batch of k-points:     7     1     5
  Processing batch of k-points:     7     1     6
  Processing batch of k-points:     7     1     7
  Processing batch of k-points:     7     1     8
  Processing batch of k-points:     7     2     1
  Processing batch of k-points:     7     2     2
  Processing batch of k-points:     7     2     3
  Processing batch of k-points:     7     2     4
  Processing batch of k-points:     7     2     5
  Processing batch of k-points:     7     2     6
  Processing batch of k-points:     7     2     7
  Processing batch of k-points:     7     2     8
  Processing batch of k-points:     7     3     1
  Processing batch of k-points:     7     3     2
  Processing batch of k-points:     7     3     3
  Processing batch of k-points:     7     3     4
  Processing batch of k-points:     7     3     5
  Processing batch of k-points:     7     3     6
  Processing batch of k-points:     7     3     7
  Processing batch of k-points:     7     3     8
  Processing batch of k-points:     7     4     1
  Processing batch of k-points:     7     4     2
  Processing batch of k-points:     7     4     3
  Processing batch of k-points:     7     4     4
  Processing batch of k-points:     7     4     5
  Processing batch of k-points:     7     4     6
  Processing batch of k-points:     7     4     7
  Processing batch of k-points:     7     4     8
  Processing batch of k-points:     7     5     1
  Processing batch of k-points:     7     5     2
  Processing batch of k-points:     7     5     3
  Processing batch of k-points:     7     5     4
  Processing batch of k-points:     7     5     5
  Processing batch of k-points:     7     5     6
  Processing batch of k-points:     7     5     7
  Processing batch of k-points:     7     5     8
  Processing batch of k-points:     7     6     1
  Processing batch of k-points:     7     6     2
  Processing batch of k-points:     7     6     3
  Processing batch of k-points:     7     6     4
  Processing batch of k-points:     7     6     5
  Processing batch of k-points:     7     6     6
  Processing batch of k-points:     7     6     7
  Processing batch of k-points:     7     6     8
  Processing batch of k-points:     7     7     1
  Processing batch of k-points:     7     7     2
  Processing batch of k-points:     7     7     3
  Processing batch of k-points:     7     7     4
  Processing batch of k-points:     7     7     5
  Processing batch of k-points:     7     7     6
  Processing batch of k-points:     7     7     7
  Processing batch of k-points:     7     7     8
  Processing batch of k-points:     7     8     1
  Processing batch of k-points:     7     8     2
  Processing batch of k-points:     7     8     3
  Processing batch of k-points:     7     8     4
  Processing batch of k-points:     7     8     5
  Processing batch of k-points:     7     8     6
  Processing batch of k-points:     7     8     7
  Processing batch of k-points:     7     8     8
  Processing batch of k-points:     8     1     1
  Processing batch of k-points:     8     1     2
  Processing batch of k-points:     8     1     3
  Processing batch of k-points:     8     1     4
  Processing batch of k-points:     8     1     5
  Processing batch of k-points:     8     1     6
  Processing batch of k-points:     8     1     7
  Processing batch of k-points:     8     1     8
  Processing batch of k-points:     8     2     1
  Processing batch of k-points:     8     2     2
  Processing batch of k-points:     8     2     3
  Processing batch of k-points:     8     2     4
  Processing batch of k-points:     8     2     5
  Processing batch of k-points:     8     2     6
  Processing batch of k-points:     8     2     7
  Processing batch of k-points:     8     2     8
  Processing batch of k-points:     8     3     1
  Processing batch of k-points:     8     3     2
  Processing batch of k-points:     8     3     3
  Processing batch of k-points:     8     3     4
  Processing batch of k-points:     8     3     5
  Processing batch of k-points:     8     3     6
  Processing batch of k-points:     8     3     7
  Processing batch of k-points:     8     3     8
  Processing batch of k-points:     8     4     1
  Processing batch of k-points:     8     4     2
  Processing batch of k-points:     8     4     3
  Processing batch of k-points:     8     4     4
  Processing batch of k-points:     8     4     5
  Processing batch of k-points:     8     4     6
  Processing batch of k-points:     8     4     7
  Processing batch of k-points:     8     4     8
  Processing batch of k-points:     8     5     1
  Processing batch of k-points:     8     5     2
  Processing batch of k-points:     8     5     3
  Processing batch of k-points:     8     5     4
  Processing batch of k-points:     8     5     5
  Processing batch of k-points:     8     5     6
  Processing batch of k-points:     8     5     7
  Processing batch of k-points:     8     5     8
  Processing batch of k-points:     8     6     1
  Processing batch of k-points:     8     6     2
  Processing batch of k-points:     8     6     3
  Processing batch of k-points:     8     6     4
  Processing batch of k-points:     8     6     5
  Processing batch of k-points:     8     6     6
  Processing batch of k-points:     8     6     7
  Processing batch of k-points:     8     6     8
  Processing batch of k-points:     8     7     1
  Processing batch of k-points:     8     7     2
  Processing batch of k-points:     8     7     3
  Processing batch of k-points:     8     7     4
  Processing batch of k-points:     8     7     5
  Processing batch of k-points:     8     7     6
  Processing batch of k-points:     8     7     7
  Processing batch of k-points:     8     7     8
  Processing batch of k-points:     8     8     1
  Processing batch of k-points:     8     8     2
  Processing batch of k-points:     8     8     3
  Processing batch of k-points:     8     8     4
  Processing batch of k-points:     8     8     5
  Processing batch of k-points:     8     8     6
  Processing batch of k-points:     8     8     7
  Processing batch of k-points:     8     8     8
  | writing perturbative DOS (shifted by electron chemical potential) to file KS_dos_total.dat
  | writing perturbative DOS (raw data) to file KS_dos_total_raw.dat

  Perturbative DOS                                        :  max(cpu_time) wall_clock(cpu1)
  | Total Time                                            :        314.252          314.965
  ------------------------------------------------------------

  -------------------------------------------------------------------
  Writing the requested band structure output:
  -------------------------------------------------------------------

  Integrating Hamiltonian matrix: batch-based integration.
  Time summed over all CPUs for integration: real work       18.084 s, elapsed       18.924 s

  Treating all   50 k-points in band plot segment #   1:


"Band gap" along reciprocal space direction number:    1
  | Lowest unoccupied state:      -4.51049237 eV
  | Highest occupied state :      -6.04674219 eV
  | Energy difference      :       1.53624982 eV


  Treating all   50 k-points in band plot segment #   2:


"Band gap" along reciprocal space direction number:    2
  | Lowest unoccupied state:      -5.46117958 eV
  | Highest occupied state :      -6.04674219 eV
  | Energy difference      :       0.58556261 eV


  Treating all   50 k-points in band plot segment #   3:


"Band gap" along reciprocal space direction number:    3
  | Lowest unoccupied state:      -5.31586950 eV
  | Highest occupied state :      -8.90474329 eV
  | Energy difference      :       3.58887379 eV


  Treating all   50 k-points in band plot segment #   4:


"Band gap" along reciprocal space direction number:    4
  | Lowest unoccupied state:      -4.82848823 eV
  | Highest occupied state :      -8.47749367 eV
  | Energy difference      :       3.64900544 eV

  "Band gap" of total set of bands:
  | Lowest unoccupied state:      -5.46117958 eV
  | Highest occupied state :      -6.04674219 eV
  | Energy difference      :       0.58556261 eV


  Band Structure                                          :  max(cpu_time) wall_clock(cpu1)
  | Total Time                                            :          0.704            0.899
  ------------------------------------------------------------

------------------------------------------------------------------------------
  Final output of selected total energy values:

  The following output summarizes some interesting total energy values
  at the end of a run (AFTER all relaxation, molecular dynamics, etc.).

  | Total energy of the DFT / Hartree-Fock s.c.f. calculation      :         -15803.222247450 eV
  | Final zero-broadening corrected energy (caution - metals only) :         -15803.222247450 eV
  | For reference only, the value of 1 Hartree used in FHI-aims is :             27.211384500 eV

  Before relying on these values, please be sure to understand exactly which
  total energy value is referred to by a given number. Different objects may
  all carry the same name 'total energy'. Definitions:

  Total energy of the DFT / Hartree-Fock s.c.f. calculation:
  | Note that this energy does not include ANY quantities calculated after the
  | s.c.f. cycle, in particular not ANY RPA, MP2, etc. many-body perturbation terms.

  Final zero-broadening corrected energy:
  | For metallic systems only, a broadening of the occupation numbers at the Fermi
  | level can be extrapolated back to zero broadening by an electron-gas inspired
  | formula. For all systems that are not real metals, this value can be
  | meaningless and should be avoided.

------------------------------------------------------------------------------
  Methods described in the following list of references were used in this FHI-aims run.
  If you publish the results, please make sure to cite these reference if they apply.
  FHI-aims is an academic code, and for our developers (often, Ph.D. students
  and postdocs), scientific credit in the community is essential.
  Thank you for helping us!

  For any use of FHI-aims, please cite:

    Volker Blum, Ralf Gehrke, Felix Hanke, Paula Havu, Ville Havu,
    Xinguo Ren, Karsten Reuter, and Matthias Scheffler
    'Ab initio molecular simulations with numeric atom-centered orbitals'
    Computer Physics Communications 180, 2175-2196 (2009)
    http://dx.doi.org/10.1016/j.cpc.2009.06.022


  For the real-space grid partitioning and parallelization used in this calculation, please cite:

    Ville Havu, Volker Blum, Paula Havu, and Matthias Scheffler,
    'Efficient O(N) integration for all-electron electronic structure calculation'
    'using numerically tabulated basis functions'
    Journal of Computational Physics 228, 8367-8379 (2009).
    http://dx.doi.org/10.1016/j.jcp.2009.08.008


  The high-level electronic structure method used in your calculation
  employed our efficient localized resolution of identity for the Coulomb operator.
  Some calculations, especially large-scale hybrid density functional theory,
  are only possible thanks to this development. For this feature, please cite:

    Arvid Ihrig, Jrgen Wieferink, Igor Ying Zhang, Matti Ropo, Xinguo Ren,
    Patrick Rinke, Matthias Scheffler, and Volker Blum,
    'Accurate localized resolution of identity approach for linear-scaling
    hybrid density functionals and for many-body perturbation theory'
    New Journal of Physics 117, 093020 (2015).
    http://dx.doi.org/10.1088/1367-2630/17/9/093020

  Of course, there are many other important community references, e.g., those cited in the
  above references. Our list is limited to references that describe implementations in the
  FHI-aims code. The reason is purely practical (length of this list) - please credit others as well.

------------------------------------------------------------
          Leaving FHI-aims.
          Date     :  20170508, Time     :  200920.018

          Computational steps:
          | Number of self-consistency cycles          :           11

          Detailed time accounting                     :  max(cpu_time)    wall_clock(cpu1)
          | Total time                                 :      352.902 s         353.612 s
          | Preparation time                           :        0.244 s           0.255 s
          | Boundary condition initalization           :        0.300 s           0.301 s
          | Grid partitioning                          :        0.120 s           0.130 s
          | Preloading free-atom quantities on grid    :        0.012 s           0.011 s
          | Free-atom superposition energy             :        0.016 s           0.017 s
          | Total time for integrations                :        7.708 s           7.716 s
          | Total time for solution of K.-S. equations :        2.288 s           2.316 s
          | Total time for density & force components  :       11.009 s          10.990 s
          | Total time for mixing & preconditioning    :        0.656 s           0.647 s
          | Total time for Hartree multipole update    :        0.084 s           0.052 s
          | Total time for Hartree multipole sum       :        5.244 s           5.231 s
          | Total time for total energy evaluation     :        0.048 s           0.020 s
          | Total time for scaled ZORA corrections     :        0.000 s           0.000 s
          | Total time for vdW correction              :        1.288 s           1.312 s
          | Total time for band structures, DOS        :      315.548 s         315.864 s

          Have a nice day.
------------------------------------------------------------
