  MPI-parallelism will be employed.
------------------------------------------------------------
          Invoking FHI-aims ...
          Version 160210
          Git rev. (modified): 3e7c3af [waf] move extension options to Configurat[...]
          Compiled on 2016/02/25 at 08:54:27 on host node17.timewarp.

          When using FHI-aims, please cite the following reference:

          Volker Blum, Ralf Gehrke, Felix Hanke, Paula Havu,
          Ville Havu, Xinguo Ren, Karsten Reuter, and Matthias Scheffler,
          'Ab Initio Molecular Simulations with Numeric Atom-Centered Orbitals: FHI-aims',
          Computer Physics Communications 180, 2175-2196 (2009)

          For any questions about FHI-aims, please visit the aimsclub website
          with its forums and wiki. Contributions to both the forums and the
          wiki are warmly encouraged - they are for you, and everyone is welcome there.

------------------------------------------------------------

  Date     :  20160229, Time     :  054110.527
  Time zero on CPU 1             :   0.249950000000000E-01  s.
  Internal wall clock time zero  :           225956470.527  s.

  Using       40 parallel tasks.
  Task        0 on host node12.timewarp reporting.
  Task        1 on host node12.timewarp reporting.
  Task        2 on host node12.timewarp reporting.
  Task        3 on host node12.timewarp reporting.
  Task        4 on host node12.timewarp reporting.
  Task        5 on host node12.timewarp reporting.
  Task        6 on host node12.timewarp reporting.
  Task        7 on host node12.timewarp reporting.
  Task        8 on host node12.timewarp reporting.
  Task        9 on host node12.timewarp reporting.
  Task       10 on host node12.timewarp reporting.
  Task       11 on host node12.timewarp reporting.
  Task       12 on host node12.timewarp reporting.
  Task       13 on host node12.timewarp reporting.
  Task       14 on host node12.timewarp reporting.
  Task       15 on host node12.timewarp reporting.
  Task       16 on host node12.timewarp reporting.
  Task       17 on host node12.timewarp reporting.
  Task       18 on host node12.timewarp reporting.
  Task       19 on host node12.timewarp reporting.
  Task       20 on host node9.timewarp reporting.
  Task       21 on host node9.timewarp reporting.
  Task       22 on host node9.timewarp reporting.
  Task       23 on host node9.timewarp reporting.
  Task       24 on host node9.timewarp reporting.
  Task       25 on host node9.timewarp reporting.
  Task       26 on host node9.timewarp reporting.
  Task       27 on host node9.timewarp reporting.
  Task       28 on host node9.timewarp reporting.
  Task       29 on host node9.timewarp reporting.
  Task       30 on host node9.timewarp reporting.
  Task       31 on host node9.timewarp reporting.
  Task       32 on host node9.timewarp reporting.
  Task       33 on host node9.timewarp reporting.
  Task       34 on host node9.timewarp reporting.
  Task       35 on host node9.timewarp reporting.
  Task       36 on host node9.timewarp reporting.
  Task       37 on host node9.timewarp reporting.
  Task       38 on host node9.timewarp reporting.
  Task       39 on host node9.timewarp reporting.

  Performing system and environment tests:
  | Environment variable OMP_NUM_THREADS correctly set to 1.
  | Maximum stacksize for task 0: unlimited
  | Maximum stacksize for task 1: unlimited
  | Maximum stacksize for task 2: unlimited
  | Maximum stacksize for task 3: unlimited
  | Maximum stacksize for task 4: unlimited
  | Maximum stacksize for task 5: unlimited
  | Maximum stacksize for task 6: unlimited
  | Maximum stacksize for task 7: unlimited
  | Maximum stacksize for task 8: unlimited
  | Maximum stacksize for task 9: unlimited
  | Maximum stacksize for task 10: unlimited
  | Maximum stacksize for task 11: unlimited
  | Maximum stacksize for task 12: unlimited
  | Maximum stacksize for task 13: unlimited
  | Maximum stacksize for task 14: unlimited
  | Maximum stacksize for task 15: unlimited
  | Maximum stacksize for task 16: unlimited
  | Maximum stacksize for task 17: unlimited
  | Maximum stacksize for task 18: unlimited
  | Maximum stacksize for task 19: unlimited
  | Maximum stacksize for task 20: unlimited
  | Maximum stacksize for task 21: unlimited
  | Maximum stacksize for task 22: unlimited
  | Maximum stacksize for task 23: unlimited
  | Maximum stacksize for task 24: unlimited
  | Maximum stacksize for task 25: unlimited
  | Maximum stacksize for task 26: unlimited
  | Maximum stacksize for task 27: unlimited
  | Maximum stacksize for task 28: unlimited
  | Maximum stacksize for task 29: unlimited
  | Maximum stacksize for task 30: unlimited
  | Maximum stacksize for task 31: unlimited
  | Maximum stacksize for task 32: unlimited
  | Maximum stacksize for task 33: unlimited
  | Maximum stacksize for task 34: unlimited
  | Maximum stacksize for task 35: unlimited
  | Maximum stacksize for task 36: unlimited
  | Maximum stacksize for task 37: unlimited
  | Maximum stacksize for task 38: unlimited
  | Maximum stacksize for task 39: unlimited
  | Current stacksize for task 0: unlimited
  | Current stacksize for task 1: unlimited
  | Current stacksize for task 2: unlimited
  | Current stacksize for task 3: unlimited
  | Current stacksize for task 4: unlimited
  | Current stacksize for task 5: unlimited
  | Current stacksize for task 6: unlimited
  | Current stacksize for task 7: unlimited
  | Current stacksize for task 8: unlimited
  | Current stacksize for task 9: unlimited
  | Current stacksize for task 10: unlimited
  | Current stacksize for task 11: unlimited
  | Current stacksize for task 12: unlimited
  | Current stacksize for task 13: unlimited
  | Current stacksize for task 14: unlimited
  | Current stacksize for task 15: unlimited
  | Current stacksize for task 16: unlimited
  | Current stacksize for task 17: unlimited
  | Current stacksize for task 18: unlimited
  | Current stacksize for task 19: unlimited
  | Current stacksize for task 20: unlimited
  | Current stacksize for task 21: unlimited
  | Current stacksize for task 22: unlimited
  | Current stacksize for task 23: unlimited
  | Current stacksize for task 24: unlimited
  | Current stacksize for task 25: unlimited
  | Current stacksize for task 26: unlimited
  | Current stacksize for task 27: unlimited
  | Current stacksize for task 28: unlimited
  | Current stacksize for task 29: unlimited
  | Current stacksize for task 30: unlimited
  | Current stacksize for task 31: unlimited
  | Current stacksize for task 32: unlimited
  | Current stacksize for task 33: unlimited
  | Current stacksize for task 34: unlimited
  | Current stacksize for task 35: unlimited
  | Current stacksize for task 36: unlimited
  | Current stacksize for task 37: unlimited
  | Current stacksize for task 38: unlimited
  | Current stacksize for task 39: unlimited
  | Checking for scalapack...
  | Testing pdtran()...
  | All pdtran() tests passed.

  Obtaining array dimensions for all initial allocations:
  
  -----------------------------------------------------------------------
  Parsing control.in (first pass over file, find array dimensions only).
  The contents of control.in will be repeated verbatim below
  unless switched off by setting 'verbatim_writeout .false.' .
  in the first line of control.in .
  -----------------------------------------------------------------------
  
  ####################
  # General Settings #
  ####################
  # Run settings
  restart wf
  override_illconditioning .true.
  basis_threshold 1E-5
  
  # Periodic boundary conditions settings
  k_grid 16 16 16
  
  # Physical model settings
  xc hse06 0.2
  hse_unit Angstrom-1
  charge 0.
  spin none
  
  # Relativistic settings
  relativistic atomic_zora scalar
  include_spin_orbit
  
  # Hybrid functionals settings
  RI_method LVL_fast
  
  # SCF convergence settings
  charge_mix_param 0.01
  occupation_type gaussian 0.01
  sc_accuracy_rho 1E-5
  sc_accuracy_etot 1E-6
  sc_accuracy_eev 1E-3
  sc_iter_limit 300
  
  # Relaxation settings
  
  # Output options
  output dos -20 30 1000 0.1
  exx_band_structure_version 1
  
  ##################
  # Band Structure #
  ##################
  # K-paths taken from Setyawan and Curtarolo, 2010
  output band  0.00000 0.00000 0.00000  0.50000 0.00000 0.50000   21 G X
  output band  0.50000 0.00000 0.50000  0.50000 0.25000 0.75000   21 X W
  output band  0.50000 0.25000 0.75000  0.37500 0.37500 0.75000   21 W K
  output band  0.37500 0.37500 0.75000  0.00000 0.00000 0.00000   21 K G
  output band  0.00000 0.00000 0.00000  0.50000 0.50000 0.50000   21 G L
  output band  0.50000 0.50000 0.50000  0.62500 0.25000 0.62500   21 L U
  output band  0.62500 0.25000 0.62500  0.50000 0.25000 0.75000   21 U W
  output band  0.50000 0.25000 0.75000  0.50000 0.50000 0.50000   21 W L
  output band  0.50000 0.50000 0.50000  0.37500 0.37500 0.75000   21 L K
  output band  0.62500 0.25000 0.62500  0.50000 0.00000 0.50000   21 U X
  
  ##############
  # Basis Sets #
  ##############
  # The specified tier level is DEFAULT
  
  ################################################################################
  #
  #  FHI-aims code project
  #  VB, Fritz-Haber Institut, 2007
  #
  #  Suggested "safe" defaults for K atom (to be pasted into control.in file)
  #
  #  The onset of the cutoff pot'l is set to 6 A by default, because the neutral
  #  K atom is a large atom. However, this is very expensive. The radius should be
  #  much smaller in real-world situations, where K will be ionic. Please check
  #  and reduce the cutoff radius explicitly.
  #
  ################################################################################
    species        K
  #     global species definitions
      nucleus             19
      mass                39.0983
  #
      l_hartree           8
  #
      cut_pot             6.0          2.0  1.0
      basis_dep_cutoff    0.d0
  #
      radial_base         46 7.0
      radial_multiplier   2
      angular_grids       specified
        division   0.5285  110
        division   0.7831  194
        division   0.9986  302
        division   1.0594  434
        division   1.1569  590
  #      division   1.2994  770
  #      division   1.4587  974
  #      outer_grid 974
        outer_grid 590
  ################################################################################
  #
  #  Definition of "minimal" basis
  #
  ################################################################################
  #     valence basis states
      valence      4  s   1.
      valence      3  p   6.
  #     ion occupancy
      ion_occ      3  s   2.
      ion_occ      3  p   6.
  ################################################################################
  #
  #  Suggested additional basis functions. For production calculations,
  #  uncomment them one after another (the most important basis functions are
  #  listed first).
  #
  #  Constructed for dimers: 2.5 A, 3.0 A, 3.875 A, 5.0 A
  #
  ################################################################################
  #  "First tier" - improvements: -43.02 meV to -8.16 meV
       ionic 3 d auto
       ionic 4 p auto
       hydro 4 s 3.1
       hydro 4 f 5.6
  #  "Second tier" - improvements: -2.10 meV to -0.40 meV
  #     hydro 4 d 4.4
  #     hydro 3 s 1.5
  #     hydro 5 g 8.2
  #     hydro 3 p 2.4
  #  "Third tier" - improvements: -0.37 meV to -0.09 meV
  #     hydro 1 s 1
  #     hydro 2 p 2.4
  #     hydro 6 h 11.6
  #     hydro 3 d 4.5
  #     hydro 5 f 9
  #  "Fourth tier" - improvements: -0.09 meV to -0.05 meV
  #     hydro 5 s 4
  #     hydro 4 d 6.6
  #     hydro 5 p 5.8
  
  ################################################################################
  #
  #  FHI-aims code project
  #  VB, Fritz-Haber Institut, 2007
  #
  #  Suggested "safe" defaults for Cl atom (to be pasted into control.in file)
  #
  #  Revised Jan 04, 2011, following tests (SiC) done by Lydia Nemec:
  #     d function of tier 2 now enabled by default.
  #
  ################################################################################
    species        Cl
  #     global species definitions
      nucleus             17
      mass                35.453
  #
      l_hartree           8
  #
      cut_pot             4.0          2.0  1.0
      basis_dep_cutoff    0.d0
  #
      radial_base         45 7.0
      radial_multiplier   2
      angular_grids       specified
        division   0.4412  110
        division   0.5489  194
        division   0.6734  302
        division   0.7794  434
        division   0.9402  590
  #      division   1.0779  770
  #      division   1.1792  974
  #      outer_grid  974
        outer_grid  590
  ################################################################################
  #
  #  Definition of "minimal" basis
  #
  ################################################################################
  #     valence basis states
      valence      3  s   2.
      valence      3  p   5.
  #     ion occupancy
      ion_occ      3  s   1.
      ion_occ      3  p   4.
  ################################################################################
  #
  #  Suggested additional basis functions. For production calculations,
  #  uncomment them one after another (the most important basis functions are
  #  listed first).
  #
  #  Constructed for dimers: 1.65 A, 2.0 A, 2.5 A, 3.25 A, 4.0 A
  #
  ################################################################################
  #  "First tier" - improvements: -429.57 meV to -15.03 meV
       ionic 3 d auto
       hydro 2 p 1.9
       hydro 4 f 7.4
       ionic 3 s auto
       hydro 5 g 10.4
  #  "Second tier" - improvements: -7.84 meV to -0.48 meV
       hydro 3 d 3.3
  #     hydro 5 f 9.8
  #     hydro 1 s 0.75
  #     hydro 5 g 11.2
  #     hydro 4 p 10.4
  #  "Third tier" - improvements: -1.00 meV to -0.12 meV
  #     hydro 4 d 12.8
  #     hydro 4 f 4.6
  #     hydro 4 d 10.8
  #     hydro 2 s 1.8
  #     hydro 3 p 3
  #  Further functions that fell out - improvements: -0.10 meV and below
  #     hydro 5 f 14.4
  #     hydro 4 s 12.8
  #     hydro 3 d 11.6
  #     hydro 4 s 4.1
  
  -----------------------------------------------------------------------
  Completed first pass over input file control.in .
  -----------------------------------------------------------------------
  
  
  -----------------------------------------------------------------------
  Parsing geometry.in (first pass over file, find array dimensions only).
  The contents of geometry.in will be repeated verbatim below
  unless switched off by setting 'verbatim_writeout .false.' .
  in the first line of geometry.in .
  -----------------------------------------------------------------------
  
  # Generated from the NaCl.cF8 prototype (RS) using a = 6.29294 A
  lattice_vector   0.000000   3.146470   3.146470
  lattice_vector   3.146470   0.000000   3.146470
  lattice_vector   3.146470   3.146470   0.000000
  atom_frac        0.000000   0.000000   0.000000 K
  atom_frac        0.500000   0.500000   0.500000 Cl
  
  -----------------------------------------------------------------------
  Completed first pass over input file geometry.in .
  -----------------------------------------------------------------------
  

  Basic array size parameters:
  | Number of species                 :        2
  | Number of atoms                   :        2
  | Number of lattice vectors         :        3
  | Max. basis fn. angular momentum   :        4
  | Max. atomic/ionic basis occupied n:        4
  | Max. number of basis fn. types    :        3
  | Max. radial fns per species/type  :        6
  | Max. logarithmic grid size        :     1371
  | Max. radial integration grid size :       93
  | Max. angular integration grid size:      590
  | Max. angular grid division number :        8
  | Radial grid for Hartree potential :     1371
  | Number of spin channels           :        1

------------------------------------------------------------
          Reading file control.in.
------------------------------------------------------------
  Restart file specified as : wf000
  | This file does not exist, will create it after the first complete scf cycle.
  override_illconditioning: Explicitly overriding any built-in checks for an ill-conditioned overlap matrix.
  *** WARNING: If you use this flag, you should really know what you are doing.
  *** DO NOT keep this flag set by default in all your control.in files.
  Threshold for basis singularities:  0.1000E-04
  Found k-point grid:        16        16        16
  XC: Using HSE-functional with OMEGA =  0.200000E+00 <units>.
  XC: For the actual units (bohr^-1 or Angstrom^-1), see below.
  hse_unit: Unit for the HSE06 hybrid functional screening parameter set to A^(-1).
  Charge =   0.000000E+00: Neutral system requested explicitly.
  Spin treatment: No spin polarisation.
  Scalar relativistic treatment of kinetic energy: on-site free-atom approximation to ZORA.
  Calculating non-self-consistent perturbative spin-orbit coupling after scf-cycle
  The 'LVL' version of RI (resolution of identity) technique is used.
  ** This is a localized expansion of all basis function products.
     Its intended use are Hartree-Fock and hybrid functionals.
     For RPA, MP2, GW, etc., LVL is not yet as accurate. In those cases, check carefully.
  Charge density mixing - mixing parameter:     0.0100
  Occupation type: Gaussian broadening, width =   0.100000E-01 eV.
  Convergence accuracy of self-consistent charge density:  0.1000E-04
  Convergence accuracy of total energy:  0.1000E-05
  Convergence accuracy of sum of eigenvalues:  0.1000E-02
  Maximum number of s.-c. iterations  :   300
  Calculating density of states with
  | energy interval :-20.000000 30.000000
  | points & broadening :  1000  0.100000

  Plot band    1
  | begin  0.000000  0.000000  0.000000
  | end    0.500000  0.000000  0.500000
  | number of points:   21

  Plot band    2
  | begin  0.500000  0.000000  0.500000
  | end    0.500000  0.250000  0.750000
  | number of points:   21

  Plot band    3
  | begin  0.500000  0.250000  0.750000
  | end    0.375000  0.375000  0.750000
  | number of points:   21

  Plot band    4
  | begin  0.375000  0.375000  0.750000
  | end    0.000000  0.000000  0.000000
  | number of points:   21

  Plot band    5
  | begin  0.000000  0.000000  0.000000
  | end    0.500000  0.500000  0.500000
  | number of points:   21

  Plot band    6
  | begin  0.500000  0.500000  0.500000
  | end    0.625000  0.250000  0.625000
  | number of points:   21

  Plot band    7
  | begin  0.625000  0.250000  0.625000
  | end    0.500000  0.250000  0.750000
  | number of points:   21

  Plot band    8
  | begin  0.500000  0.250000  0.750000
  | end    0.500000  0.500000  0.500000
  | number of points:   21

  Plot band    9
  | begin  0.500000  0.500000  0.500000
  | end    0.375000  0.375000  0.750000
  | number of points:   21

  Plot band   10
  | begin  0.625000  0.250000  0.625000
  | end    0.500000  0.000000  0.500000
  | number of points:   21
 
  Reading configuration options for species K                   .
  | Found nuclear charge :  19.0000
  | Found atomic mass :    39.0983000000000      amu
  | Found l_max for Hartree potential  :   8
  | Found cutoff potl. onset [A], width [A], scale factor :    6.00000    2.00000    1.00000
  | Threshold for basis-dependent cutoff potential is   0.000000E+00
  | Found data for basic radial integration grid :    46 points, outermost radius =    7.000 A
  | Found multiplier for basic radial grid :   2
  | Found angular grid specification: user-specified.
  | Specified grid contains     6 separate shells.
  | Check grid settings after all constraints further below.
  | Found free-atom valence shell :  4 s   1.000
  | Found free-atom valence shell :  3 p   6.000
  | Found free-ion valence shell :  3 s   2.000
  | Found free-ion valence shell :  3 p   6.000
  | Found ionic basis function :  3 d , default cutoff radius.
  | Found ionic basis function :  4 p , default cutoff radius.
  | Found hydrogenic basis function :  4 s   3.100
  | Found hydrogenic basis function :  4 f   5.600
  Species K                   : Missing cutoff potential type.
  Defaulting to exp(1/x)/(1-x)^2 type cutoff potential.
  Species K : No 'logarithmic' tag. Using default grid for free atom:
  | Default logarithmic grid data [bohr] : 0.1000E-03 0.1000E+03 0.1012E+01
  | Will include ionic basis functions of  1.0-fold positive K                    ion.
  Species K : On-site basis accuracy parameter (for Gram-Schmidt orthonormalisation) not specified.
  Using default value basis_acc =  0.1000000E-03.
  Species K                   : Using default innermost maximum threshold i_radial=  2 for radial functions.
  Species K                   : Default cutoff onset for free atom density etc. : 0.60000000E+01 AA.
  Species K                   : Basic radial grid will be enhanced according to radial_multiplier =   2, to contain    93 grid points.
 
  Reading configuration options for species Cl                  .
  | Found nuclear charge :  17.0000
  | Found atomic mass :    35.4530000000000      amu
  | Found l_max for Hartree potential  :   8
  | Found cutoff potl. onset [A], width [A], scale factor :    4.00000    2.00000    1.00000
  | Threshold for basis-dependent cutoff potential is   0.000000E+00
  | Found data for basic radial integration grid :    45 points, outermost radius =    7.000 A
  | Found multiplier for basic radial grid :   2
  | Found angular grid specification: user-specified.
  | Specified grid contains     6 separate shells.
  | Check grid settings after all constraints further below.
  | Found free-atom valence shell :  3 s   2.000
  | Found free-atom valence shell :  3 p   5.000
  | Found free-ion valence shell :  3 s   1.000
  | Found free-ion valence shell :  3 p   4.000
  | Found ionic basis function :  3 d , default cutoff radius.
  | Found hydrogenic basis function :  2 p   1.900
  | Found hydrogenic basis function :  4 f   7.400
  | Found ionic basis function :  3 s , default cutoff radius.
  | Found hydrogenic basis function :  5 g  10.400
  | Found hydrogenic basis function :  3 d   3.300
  Species Cl                  : Missing cutoff potential type.
  Defaulting to exp(1/x)/(1-x)^2 type cutoff potential.
  Species Cl: No 'logarithmic' tag. Using default grid for free atom:
  | Default logarithmic grid data [bohr] : 0.1000E-03 0.1000E+03 0.1012E+01
  | Will include ionic basis functions of  2.0-fold positive Cl                   ion.
  Species Cl: On-site basis accuracy parameter (for Gram-Schmidt orthonormalisation) not specified.
  Using default value basis_acc =  0.1000000E-03.
  Species Cl                  : Using default innermost maximum threshold i_radial=  2 for radial functions.
  Species Cl                  : Default cutoff onset for free atom density etc. : 0.40000000E+01 AA.
  Species Cl                  : Basic radial grid will be enhanced according to radial_multiplier =   2, to contain    91 grid points.
 
  Finished reading input file 'control.in'. Consistency checks are next.
 
  HSE06 functional: Converting omega to        0.10583544 bohr^-1.
  HSE06 screening parameters: omega_HF  =      0.10583544 bohr^-1, and
                              omega_PBE =      0.10583544 bohr^-1.
  Species K: Using default value for prodbas_acc =   1.000000E-04.
  Species K: Using default value max_l_prodbas =    20.
  Species Cl: Using default value for prodbas_acc =   1.000000E-04.
  Species Cl: Using default value max_l_prodbas =    20.
  Target number of points in a grid batch is not set. Defaulting to  100
  Method for grid partitioning is not set. Defaulting to parallel hash+maxmin partitioning.
  Batch size limit is not set. Defaulting to    200
  By default, will store active basis functions for each batch.
  If in need of memory, prune_basis_once .false. can be used to disable this option.
  communication_type for Hartree potential was not specified.
  Defaulting to calc_hartree .
  Defaulting to Pulay charge density mixer.
  Pulay mixer: Number of relevant iterations not set.
  Defaulting to    8 iterations.
  Pulay mixer: Number of initial linear mixing iterations not set.
  Defaulting to    0 iterations.
  Work space size for distributed Hartree potential not set.
  Defaulting to   0.200000E+03 MB.
  Algorithm-dependent basis array size parameters:
  | n_max_pulay                         :        8
  Calculation of forces was not defined in control.in. No forces will be calculated.
  Geometry relaxation not requested: no relaxation will be performed.
  No accuracy limit for integral partition fn. given. Defaulting to  0.1000E-14.
  No threshold value for u(r) in integrations given. Defaulting to  0.1000E-05.
  No accuracy for occupation numbers given. Defaulting to  0.1000E-07.
  No threshold value for occupation numbers given. Defaulting to  0.0000E+00.
  No accuracy for fermi level given. Defaulting to  0.1000E-19.
  Maximum # of iterations to find E_F not set. Defaulting to  200.
  Preferred method for the eigenvalue solver ('KS_method') not specified in 'control.in'.
  Defaulting to serial version, 'lapack_fast', since more k-points than CPUs available.
  Will not use alltoall communication since running on < 1024 CPUs.
  partition_type (choice of integration weights) for integrals was not specified.
  | Using a version of the partition function of Stratmann and coworkers ('stratmann_smoother').
  | At each grid point, the set of atoms used to build the partition table is smoothly restricted to
  | only those atoms whose free-atom density would be non-zero at that grid point.
  Partitioning for Hartree potential was not defined. Using partition_type for integrals.
  | Adjusted default value of keyword multip_moments_threshold to:       0.10000000E-11
  | This value may affect high angular momentum components of the Hartree potential in periodic systems.
  Threshold for auxiliary basis singularities not set.
  Default threshold for auxiliary basis singularities:  0.1000E-04
  No q(lm)/r^(l+1) cutoff set for long-range Hartree potential.
  | Using default value of  0.100000E-09 .
  | Verify using the multipole_threshold keyword.
  Defaulting to new monopole extrapolation.
  Density update method: automatic selection selected.
  Using density matrix based charge density update.
  Using density matrix based charge density update.
  Using packed matrix style: index .
 * NOTE: You are attempting to run a periodic structure with an exchange treatment
 * which requires a two-electron Coulomb operator (Hartree-Fock or a hybrid functional).
 * The present implementation is reliable to our knowledge, but some things
 * (like band structure output, or perhaps the auxilary basis set for small
 * orbital basis sets - see the "for_aux" keyword) require extra care.
 * Please let us know if you encounter any trouble.
  Coulomb operator: Defaulting to screening threshold for four-center integrals:   0.100000E-06
  Coulomb operator: Defaulting to screening threshold for Coulomb matrix:   0.100000E-09
  Coulomb operator: Defaulting to logarithmic spherical Bessel transform integrals (use_logsbt .true.).
  HSE with LVL_fast: Also defaulting to logarithmic spherical Bessel transform integrals.
  Defaulting to use full k-point grid (no symmetry reduction).
  LVL not implemented with density matrix yet
  -> switching to transformed overlap
  LVL probably works better with logsbt
  Default to 1D ("use_logsbt") integrations for auxiliary 2-center integrals.
  Default onset of logarithmic r-grid for SBT is-38.000000000000
  Default onset of logarithmic k-grid for SBT is-25.000000000000
  Default range of logarithmic r- and k-grid for SBT is 45.000000000000
  Default number of logarithmic r- and k-grid for SBT is  4096
  * Use logSBT for radial HSE integration, too
 *** WARNING: Band structure and exact exchange are requested at the same time,
 *** and exx_band_structure_version is set to 1. This implies that you request
 *** a band structure calculation based on interpolation of the Fock matrix
 *** in k-space. THIS VERSION MAY REQUIRE A VERY DENSE k-POINT GRID TO GIVE
 *** REASONABLE BAND STRUCTURES!! Please test carefully for your system.
 *** The program will continue.
------------------------------------------------------------


------------------------------------------------------------
          Reading geometry description geometry.in.
------------------------------------------------------------
  Input structure read successfully.
  The structure contains        2 atoms,  and a total of         36.000 electrons.

  Input geometry:
  | Unit cell:
  |         0.000000         3.146470         3.146470
  |         3.146470         0.000000         3.146470
  |         3.146470         3.146470         0.000000
  | Atomic structure:
  |       Atom                x [A]            y [A]            z [A]
  |    1: Species K              0.000000         0.000000         0.000000
  |    2: Species Cl             3.146470         3.146470         3.146470

  Symmetry information by spglib:
  | Precision set to  0.1E-04
  | Number of Operations  : 48
  | Space group           : 225
  | International         : Fm-3m
  | Schoenflies           : Oh^5
  |

  | The smallest distance between any two atoms is         3.14647000 AA.
  |
  | The first atom of this pair is atom number                      1 .
  | The second atom of this pair is atom number                     2 .
  | Wigner-Seitz cell of the first atom image           0     0     0 .
  | (The Wigner-Seitz cell of the second atom is 0 0 0  by definition.)

  Quantities derived from the lattice vectors:
  | Reciprocal lattice vector 1: -0.998450  0.998450  0.998450
  | Reciprocal lattice vector 2:  0.998450 -0.998450  0.998450
  | Reciprocal lattice vector 3:  0.998450  0.998450 -0.998450
  | Unit cell volume                               :   0.623018E+02  A^3

  Number of empty states per atom not set in control.in - providing a guess from actual geometry.
  | Total number of empty states used during s.c.f. cycle:        6
  If you use a very high smearing, use empty_states (per atom!) in control.in to increase this value.

  Structure-dependent array size parameters: 
  | Maximum number of distinct radial functions  :       21
  | Maximum number of basis functions            :       65
  | Number of Kohn-Sham states (occupied + empty):       24
------------------------------------------------------------
  Setting Coulomb cut-width to  1.091868692359 * rcut.
  Setting Coulomb cutting radius rcut to 35.598244380801 A.

------------------------------------------------------------
          Preparing all fixed parts of the calculation.
------------------------------------------------------------
  Determining machine precision:
    2.225073858507201E-308
  Setting up grids for atomic and cluster calculations.

  Creating wave function, potential, and density for free atoms.

  Species: K

  List of occupied orbitals and eigenvalues:
    n    l              occ      energy [Ha]    energy [eV]
    1    0           2.0000      -129.995233     -3537.3503
    2    0           2.0000       -12.990825      -353.4983
    3    0           2.0000        -1.296004       -35.2661
    4    0           1.0000        -0.083144        -2.2625
    2    1           6.0000       -10.295222      -280.1472
    3    1           6.0000        -0.688549       -18.7364


  Species: Cl

  List of occupied orbitals and eigenvalues:
    n    l              occ      energy [Ha]    energy [eV]
    1    0           2.0000      -101.452858     -2760.6727
    2    0           2.0000        -9.289412      -252.7778
    3    0           2.0000        -0.760218       -20.6866
    2    1           6.0000        -7.043793      -191.6714
    3    1           5.0000        -0.315674        -8.5899

  Creating fixed part of basis set: Ionic, confined, hydrogenic.
 
  K                    ion:

  List of free ionic orbitals and eigenvalues:
    n    l      energy [Ha]    energy [eV]
    1    0      -130.225917     -3543.6275
    2    0       -13.220304      -359.7428
    3    0        -1.523322       -41.4517
    2    1       -10.524695      -286.3915
    3    1        -0.914412       -24.8824


  List of ionic basis orbitals and eigenvalues:
    n    l      energy [Ha]    energy [eV]    outer radius [A]
    3    2        -0.139924        -3.8075       7.396591
    4    1        -0.136995        -3.7278       7.396591

 
  K                    hydrogenic:
 
  List of hydrogenic basis orbitals: 
    n    l      effective z      eigenvalue [eV]  inner max. [A]     outer max. [A]     outer radius [A]   
    4    0         3.100000        -7.9684           0.124665           4.113277           7.487570
    4    3         5.600000       -26.6672           1.509489           1.509489           7.130236
 
 
  Cl                   ion:

  List of free ionic orbitals and eigenvalues:
    n    l      energy [Ha]    energy [eV]
    1    0      -102.554413     -2790.6476
    2    0       -10.359555      -281.8978
    3    0        -1.672516       -45.5115
    2    1        -8.116241      -220.8542
    3    1        -1.184158       -32.2226


  List of ionic basis orbitals and eigenvalues:
    n    l      energy [Ha]    energy [eV]    outer radius [A]
    3    2        -0.528061       -14.3693       5.389057
    3    0        -1.672516       -45.5115       4.947071

 
  Cl                   hydrogenic:
 
  List of hydrogenic basis orbitals: 
    n    l      effective z      eigenvalue [eV]  inner max. [A]     outer max. [A]     outer radius [A]   
    2    1         1.900000       -12.2741           1.113321           1.113321           5.389057
    4    3         7.400000       -46.5655           1.140877           1.140877           5.258893
    5    4        10.400000       -58.8637           1.273568           1.273568           5.258893
    3    2         3.300000       -16.4532           1.439178           1.439178           5.455343
 

  Adding cutoff potential to free-atom effective potential.
  Creating atomic-like basis functions for current effective potential.

  Species K                   :

  List of atomic basis orbitals and eigenvalues:
    n    l      energy [Ha]    energy [eV]    outer radius [A]
    1    0      -129.995233     -3537.3503       0.567663
    2    0       -12.990825      -353.4983       1.813296
    3    0        -1.296004       -35.2661       5.515816
    4    0        -0.083144        -2.2625       7.396591
    2    1       -10.295222      -280.1472       1.951300
    3    1        -0.688549       -18.7364       6.707454


  Species Cl                  :

  List of atomic basis orbitals and eigenvalues:
    n    l      energy [Ha]    energy [eV]    outer radius [A]
    1    0      -101.452858     -2760.6727       0.642251
    2    0        -9.289412      -252.7778       2.102331
    3    0        -0.760218       -20.6866       5.194994
    2    1        -7.043793      -191.6714       2.346844
    3    1        -0.315674        -8.5899       5.323577

  Assembling full basis from fixed parts.
  | Species K :   atomic orbital   1 s accepted.
  | Species K :   atomic orbital   2 s accepted.
  | Species K :   atomic orbital   3 s accepted.
  | Species K :   atomic orbital   4 s accepted.
  | Species K :    hydro orbital   4 s accepted.
  | Species K :   atomic orbital   2 p accepted.
  | Species K :   atomic orbital   3 p accepted.
  | Species K :    ionic orbital   4 p accepted.
  | Species K :    ionic orbital   3 d accepted.
  | Species K :    hydro orbital   4 f accepted.
  | Species Cl :   atomic orbital   1 s accepted.
  | Species Cl :   atomic orbital   2 s accepted.
  | Species Cl :   atomic orbital   3 s accepted.
  | Species Cl :    ionic orbital   3 s accepted.
  | Species Cl :   atomic orbital   2 p accepted.
  | Species Cl :   atomic orbital   3 p accepted.
  | Species Cl :    hydro orbital   2 p accepted.
  | Species Cl :    ionic orbital   3 d accepted.
  | Species Cl :    hydro orbital   3 d accepted.
  | Species Cl :    hydro orbital   4 f accepted.
  | Species Cl :    hydro orbital   5 g accepted.
 
  Basis size parameters after reduction:
  | Total number of radial functions:       21
  | Total number of basis functions :       65
 
  Testing on-site integration grid accuracy.
  |  Species  Function  <phi|h_atom|phi> (log., in eV)  <phi|h_atom|phi> (rad., in eV)
           1        1              -3537.3502606108              -3537.3501715058
           1        2               -353.4983424364               -353.4983409139
           1        3                -35.2660571351                -35.2660570081
           1        4                 -2.2654552032                 -2.2629420379
           1        5                  2.8891235664                  2.9164053896
           1        6               -280.1472468618               -280.1472464924
           1        7                -18.7363691333                -18.7363690804
           1        8                 -0.3008860145                 -0.2977760056
           1        9                  1.3253432932                  1.3257837923
           1       10                 15.3351158297                 15.3351163219
           2       11              -2760.6727353851              -2760.6726789181
           2       12               -252.7777623081               -252.7777614751
           2       13                -20.6865951596                -20.6865950295
           2       14                  9.3808046445                  9.3808065272
           2       15               -191.6713611479               -191.6713609468
           2       16                 -8.5900157139                 -8.5900150847
           2       17                  7.6560616461                  7.6560792027
           2       18                  7.0036714588                  7.0036732847
           2       19                 16.7157265254                 16.7157520887
           2       20                 28.0571341569                 28.0571344527
           2       21                 45.0521238879                 45.0521241610

  Preparing densities etc. for the partition functions (integrals / Hartree potential).

  Preparations completed.
  max(cpu_time)          :      0.420 s.
  Wall clock time (cpu1) :      0.424 s.
------------------------------------------------------------

------------------------------------------------------------
          Begin self-consistency loop: Initialization.

          Date     :  20160229, Time     :  054111.111
------------------------------------------------------------

  Initializing index lists of integration centers etc. from given atomic structure:
  Mapping all atomic coordinates to central unit cell.

  Initializing the k-points
  | Number of k-points                             :      4096
  | Consuming     262144 KiB for k_phase_exx.
  The eigenvectors in the calculations are COMPLEX.
  | K-points in task   0:       102
  | K-points in task   1:       103
  | K-points in task   2:       103
  | K-points in task   3:       103
  | K-points in task   4:       103
  | K-points in task   5:       103
  | K-points in task   6:       103
  | K-points in task   7:       103
  | K-points in task   8:       103
  | K-points in task   9:       103
  | K-points in task  10:       103
  | K-points in task  11:       103
  | K-points in task  12:       103
  | K-points in task  13:       103
  | K-points in task  14:       103
  | K-points in task  15:       103
  | K-points in task  16:       103
  | K-points in task  17:       102
  | K-points in task  18:       102
  | K-points in task  19:       102
  | K-points in task  20:       102
  | K-points in task  21:       102
  | K-points in task  22:       102
  | K-points in task  23:       102
  | K-points in task  24:       102
  | K-points in task  25:       102
  | K-points in task  26:       102
  | K-points in task  27:       102
  | K-points in task  28:       102
  | K-points in task  29:       102
  | K-points in task  30:       102
  | K-points in task  31:       102
  | K-points in task  32:       102
  | K-points in task  33:       102
  | K-points in task  34:       102
  | K-points in task  35:       102
  | K-points in task  36:       102
  | K-points in task  37:       102
  | K-points in task  38:       102
  | K-points in task  39:       102
  | Number of basis functions in the Hamiltonian integrals :      3494
  | Number of basis functions in a single unit cell        :        65
  | Number of centers in hartree potential         :       621
  | Number of centers in hartree multipole         :       606
  | Number of centers in electron density summation:       432
  | Number of centers in basis integrals           :       459
  | Number of centers in integrals                 :       137
  | Number of centers in hamiltonian               :       582
  | Consuming      22912 KiB for k_phase.
  | Number of super-cells (origin) [n_cells]                     :        2197
  | Number of super-cells (after PM_index) [n_cells]             :         358
  | Number of super-cells in hamiltonian [n_cells_in_hamiltonian]:         358
  | Size of matrix packed + index [n_hamiltonian_matrix_size] :      226782
  Partitioning the integration grid into batches with parallel hashing+maxmin method.
  | Number of batches:      704
  | Maximal batch size:     122
  | Minimal batch size:      49
  | Average batch size:      86.756
  | Standard deviation of batch sizes:      16.495

  Integration load balanced across    40 MPI tasks.
  Work distribution over tasks is as follows:
  Task     0 has       1544 integration points.
  Task     1 has       1503 integration points.
  Task     2 has       1595 integration points.
  Task     3 has       1499 integration points.
  Task     4 has       1541 integration points.
  Task     5 has       1506 integration points.
  Task     6 has       1592 integration points.
  Task     7 has       1499 integration points.
  Task     8 has       1547 integration points.
  Task     9 has       1555 integration points.
  Task    10 has       1505 integration points.
  Task    11 has       1505 integration points.
  Task    12 has       1502 integration points.
  Task    13 has       1544 integration points.
  Task    14 has       1538 integration points.
  Task    15 has       1541 integration points.
  Task    16 has       1501 integration points.
  Task    17 has       1498 integration points.
  Task    18 has       1541 integration points.
  Task    19 has       1567 integration points.
  Task    20 has       1503 integration points.
  Task    21 has       1574 integration points.
  Task    22 has       1506 integration points.
  Task    23 has       1503 integration points.
  Task    24 has       1500 integration points.
  Task    25 has       1501 integration points.
  Task    26 has       1581 integration points.
  Task    27 has       1500 integration points.
  Task    28 has       1553 integration points.
  Task    29 has       1501 integration points.
  Task    30 has       1591 integration points.
  Task    31 has       1548 integration points.
  Task    32 has       1502 integration points.
  Task    33 has       1503 integration points.
  Task    34 has       1576 integration points.
  Task    35 has       1500 integration points.
  Task    36 has       1503 integration points.
  Task    37 has       1500 integration points.
  Task    38 has       1507 integration points.
  Task    39 has       1501 integration points.
  Initializing partition tables, free-atom densities, potentials, etc. across the integration grid (initialize_grid_storage).
  | initialize_grid_storage: Actual outermost partition radius vs. multipole_radius_free
  | (-- VB: in principle, multipole_radius_free should be larger, hence this output)
  | Species        1: Confinement radius =              8.000000000000000 AA, multipole_radius_free =              8.057426145111107 AA.
  | Species        1: outer_partition_radius set to              8.057426145111107 AA .
  | Species        2: Confinement radius =              6.000000000000000 AA, multipole_radius_free =              6.015836048499353 AA.
  | Species        2: outer_partition_radius set to              6.015836048499353 AA .
  | Original list of interatomic distances with         459 x        459 entries is created.
  | Net number of integration points:    61076
  | of which are non-zero points    :    50576
  | Numerical average free-atom electrostatic potential    :    -10.12638579 eV
  Obtaining max. number of non-zero basis functions in each batch (get_n_compute_maxes).
  | Maximal number of non-zero basis functions:     1221 in task     0
  | Maximal number of non-zero basis functions:     1204 in task     1
  | Maximal number of non-zero basis functions:     1221 in task     2
  | Maximal number of non-zero basis functions:     1201 in task     3
  | Maximal number of non-zero basis functions:     1221 in task     4
  | Maximal number of non-zero basis functions:     1206 in task     5
  | Maximal number of non-zero basis functions:     1206 in task     6
  | Maximal number of non-zero basis functions:     1200 in task     7
  | Maximal number of non-zero basis functions:     1221 in task     8
  | Maximal number of non-zero basis functions:     1221 in task     9
  | Maximal number of non-zero basis functions:     1221 in task    10
  | Maximal number of non-zero basis functions:     1221 in task    11
  | Maximal number of non-zero basis functions:     1221 in task    12
  | Maximal number of non-zero basis functions:     1197 in task    13
  | Maximal number of non-zero basis functions:     1221 in task    14
  | Maximal number of non-zero basis functions:     1206 in task    15
  | Maximal number of non-zero basis functions:     1221 in task    16
  | Maximal number of non-zero basis functions:     1218 in task    17
  | Maximal number of non-zero basis functions:     1209 in task    18
  | Maximal number of non-zero basis functions:     1203 in task    19
  | Maximal number of non-zero basis functions:     1209 in task    20
  | Maximal number of non-zero basis functions:     1203 in task    21
  | Maximal number of non-zero basis functions:     1221 in task    22
  | Maximal number of non-zero basis functions:     1197 in task    23
  | Maximal number of non-zero basis functions:     1192 in task    24
  | Maximal number of non-zero basis functions:     1197 in task    25
  | Maximal number of non-zero basis functions:     1221 in task    26
  | Maximal number of non-zero basis functions:     1221 in task    27
  | Maximal number of non-zero basis functions:     1201 in task    28
  | Maximal number of non-zero basis functions:     1212 in task    29
  | Maximal number of non-zero basis functions:     1221 in task    30
  | Maximal number of non-zero basis functions:     1208 in task    31
  | Maximal number of non-zero basis functions:     1163 in task    32
  | Maximal number of non-zero basis functions:     1201 in task    33
  | Maximal number of non-zero basis functions:     1207 in task    34
  | Maximal number of non-zero basis functions:     1221 in task    35
  | Maximal number of non-zero basis functions:     1210 in task    36
  | Maximal number of non-zero basis functions:     1221 in task    37
  | Maximal number of non-zero basis functions:     1221 in task    38
  | Maximal number of non-zero basis functions:     1188 in task    39
  Integrating Hamiltonian matrix: batch-based integration.
  Time summed over all CPUs for integration: real work       20.537 s, elapsed       22.018 s
  Integrating overlap matrix.
  Time summed over all CPUs for integration: real work       15.333 s, elapsed       16.390 s

  Updating Kohn-Sham eigenvalues, eigenvectors, occupation numbers, and Fermi level.
  Solving generalized eigenproblem
  Transforming overlap matrix and checking for singularities.
  Overlap matrix is nonsingular at first k-point:
  | Lowest eigenvalue:  0.140369E-01
  Determining occupation numbers for Kohn-Sham eigenstates.
  | Chemical potential (Fermi level) in eV                 : -.83861647E+01
  | Error in electron count due to remaining E_F inaccuracy: 0.00000000E+00
  | Maximum occupation number of highest empty state:  0.00E+00

  Writing Kohn-Sham eigenvalues.
  K-point:       1 at    0.000000    0.000000    0.000000 (in units of recip. lattice)

  State    Occupation    Eigenvalue [Ha]    Eigenvalue [eV]
      1       2.00000        -130.001588        -3537.52321
      2       2.00000        -101.496998        -2761.87383
      3       2.00000         -12.997474         -353.67926
      4       2.00000         -10.301830         -280.32705
      5       2.00000         -10.301830         -280.32705
      6       2.00000         -10.301830         -280.32705
      7       2.00000          -9.334820         -254.01336
      8       2.00000          -7.089044         -192.90272
      9       2.00000          -7.089044         -192.90272
     10       2.00000          -7.089044         -192.90272
     11       2.00000          -1.306891          -35.56232
     12       2.00000          -0.823648          -22.41260
     13       2.00000          -0.700089          -19.05039
     14       2.00000          -0.700089          -19.05039
     15       2.00000          -0.700089          -19.05039
     16       2.00000          -0.370944          -10.09390
     17       2.00000          -0.370944          -10.09390
     18       2.00000          -0.370944          -10.09390
     19       0.00000          -0.152877           -4.16000
     20       0.00000          -0.023235           -0.63226
     21       0.00000          -0.023235           -0.63226
     22       0.00000          -0.023235           -0.63226
     23       0.00000           0.010704            0.29128
     24       0.00000           0.010704            0.29128

  What follows are estimated values for band gap, HOMO, LUMO, etc.
  | They are estimated on a discrete k-point grid and not necessarily exact.
  | For converged numbers, create a DOS and/or band structure plot on a denser k-grid.

  Highest occupied state (VBM) at    -10.09390337 eV (relative to internal zero)
  | Occupation number:      2.00000000
  | K-point:       1 at    0.000000    0.000000    0.000000 (in units of recip. lattice)

  Lowest unoccupied state (CBM) at    -4.15999950 eV (relative to internal zero)
  | Occupation number:      0.00000000
  | K-point:       1 at    0.000000    0.000000    0.000000 (in units of recip. lattice)

  ESTIMATED overall HOMO-LUMO gap:      5.93390388 eV between HOMO at k-point 1 and LUMO at k-point 1
  | This appears to be a direct band gap.
  The gap value is above 0.2 eV. Unless you are using a very sparse k-point grid,
  this system is most likely an insulator or a semiconductor.
  Calculating total energy contributions from superposition of free atom densities.

  Total energy components:
  | Sum of eigenvalues            :        -622.77673936 Ha      -16946.61731249 eV
  | XC energy correction          :         -61.65798989 Ha       -1677.79927034 eV
  | XC potential correction       :          79.74796831 Ha        2170.05262865 eV
  | Free-atom electrostatic energy:        -461.13054377 Ha      -12548.00053122 eV
  | Hartree energy correction     :           0.00000000 Ha           0.00000000 eV
  | Entropy correction            :           0.00000000 Ha           0.00000000 eV
  | ---------------------------
  | Total energy                  :       -1065.81730472 Ha      -29002.36448539 eV
  | Total energy, T -> 0          :       -1065.81730472 Ha      -29002.36448539 eV  <-- do not rely on this value for anything but (periodic) metals
  | Electronic free energy        :       -1065.81730472 Ha      -29002.36448539 eV

  Derived energy quantities:
  | Kinetic energy                :        1071.36446329 Ha       29153.31035019 eV
  | Electrostatic energy          :       -2075.52377812 Ha      -56477.87556525 eV
  | Energy correction for multipole
  | error in Hartree potential    :           0.00000000 Ha           0.00000000 eV
  | Sum of eigenvalues per atom                           :       -8473.30865624 eV
  | Total energy (T->0) per atom                          :      -14501.18224270 eV  <-- do not rely on this value for anything but (periodic) metals
  | Electronic free energy per atom                       :      -14501.18224270 eV
  
  --------------------------------------------
  Constructing auxiliary basis (full product) ...
  
  Product basis:
  | charge radius: extent of product basis function
  | field radius: extent of its Coulomb potential
  | Species   l  charge radius    field radius
  |    K      0     3.508874 A      3.508874 A
  |    K      0     4.881096 A      4.881096 A
  |    K      0     6.309740 A      6.309740 A
  |    K      0     6.958016 A      6.958016 A
  |    K      0     7.130236 A      8.777302 A
  |    K      0     7.217938 A     13.797583 A
  |    K      0     7.306719 A     22.226112 A
  |    K      0     7.306719 A     25.116316 A
  |    K      0     7.396591 A     26.699440 A
  |    K      0     7.396591 A     27.696818 A
  |    K      0     7.396591 A     28.037490 A
  |    K      0     7.396591 A     27.696818 A
  |    K      1     3.143291 A      3.143291 A
  |    K      1     5.382590 A      5.382590 A
  |    K      1     6.545445 A      6.545445 A
  |    K      1     6.873472 A      6.873472 A
  |    K      1     7.043600 A      7.043600 A
  |    K      1     7.217938 A     14.139092 A
  |    K      1     7.306719 A     21.425737 A
  |    K      1     7.306719 A     24.509669 A
  |    K      1     7.396591 A     26.054555 A
  |    K      1     7.396591 A     27.027844 A
  |    K      1     7.396591 A     27.696818 A
  |    K      1     7.396591 A     28.037490 A
  |    K      2     5.935609 A      5.935609 A
  |    K      2     6.873472 A      6.873472 A
  |    K      2     7.130236 A      7.130236 A
  |    K      2     7.217938 A     11.485883 A
  |    K      2     7.306719 A     18.277451 A
  |    K      2     7.396591 A     24.211863 A
  |    K      2     7.396591 A     25.737978 A
  |    K      2     7.396591 A     27.027844 A
  |    K      2     7.396591 A     27.696818 A
  |    K      2     7.487570 A     28.037490 A
  |    K      3     6.465915 A      6.465915 A
  |    K      3     6.958016 A      6.958016 A
  |    K      3     7.130236 A      7.130236 A
  |    K      3     7.217938 A     13.797583 A
  |    K      3     7.306719 A     21.689274 A
  |    K      3     7.396591 A     24.811139 A
  |    K      3     7.396591 A     26.375027 A
  |    K      3     7.396591 A     27.360286 A
  |    K      3     7.396591 A     28.037490 A
  |    K      4     7.130236 A      7.396591 A
  |    K      4     7.306719 A     17.619269 A
  |    K      4     7.217938 A     22.226112 A
  |    K      4     7.396591 A     25.116316 A
  |    K      4     7.396591 A     26.699440 A
  |    K      4     7.396591 A     27.360286 A
  |    K      5     7.306719 A     24.509669 A
  |    K      5     7.306719 A     25.425247 A
  |    K      6     7.130236 A     23.917675 A
  |    Cl     0     4.324605 A      5.522444 A
  |    Cl     0     4.653738 A      7.315498 A
  |    Cl     0     4.947071 A      6.798114 A
  |    Cl     0     5.131872 A      7.776606 A
  |    Cl     0     5.258893 A      9.809926 A
  |    Cl     0     5.323577 A     18.752346 A
  |    Cl     0     5.389057 A     22.526527 A
  |    Cl     0     5.389057 A     24.539118 A
  |    Cl     0     5.455343 A     25.768902 A
  |    Cl     0     5.455343 A     26.085860 A
  |    Cl     0     5.455343 A     26.085860 A
  |    Cl     1     4.431645 A      4.431645 A
  |    Cl     1     4.886961 A      4.886961 A
  |    Cl     1     5.007920 A      5.007920 A
  |    Cl     1     5.194994 A      5.942740 A
  |    Cl     1     5.323577 A     15.610505 A
  |    Cl     1     5.389057 A     21.715334 A
  |    Cl     1     5.389057 A     23.946412 A
  |    Cl     1     5.455343 A     25.146493 A
  |    Cl     1     5.455343 A     26.085860 A
  |    Cl     1     5.455343 A     26.406717 A
  |    Cl     2     4.597192 A      4.597192 A
  |    Cl     2     5.007920 A      5.007920 A
  |    Cl     2     5.131872 A      5.131872 A
  |    Cl     2     5.194994 A      7.682116 A
  |    Cl     2     5.323577 A     18.077063 A
  |    Cl     2     5.389057 A     22.526527 A
  |    Cl     2     5.389057 A     24.539118 A
  |    Cl     2     5.455343 A     25.768902 A
  |    Cl     2     5.455343 A     26.085860 A
  |    Cl     3     4.947071 A      4.947071 A
  |    Cl     3     4.947071 A      4.947071 A
  |    Cl     3     5.258893 A      5.728739 A
  |    Cl     3     5.323577 A     15.802514 A
  |    Cl     3     5.389057 A     21.982433 A
  |    Cl     3     5.389057 A     23.946412 A
  |    Cl     3     5.455343 A     25.455796 A
  |    Cl     3     5.455343 A     26.085860 A
  |    Cl     4     5.007920 A      5.007920 A
  |    Cl     4     5.007920 A      5.007920 A
  |    Cl     4     5.258893 A      5.258893 A
  |    Cl     4     5.323577 A     12.224528 A
  |    Cl     4     5.389057 A     20.427739 A
  |    Cl     4     5.389057 A     23.368023 A
  |    Cl     4     5.455343 A     25.146493 A
  |    Cl     4     5.455343 A     26.085860 A
  |    Cl     5     5.194994 A      5.194994 A
  |    Cl     5     5.323577 A     14.865516 A
  |    Cl     5     5.323577 A     21.451480 A
  |    Cl     5     5.389057 A     23.655450 A
  |    Cl     5     5.389057 A     25.146493 A
  |    Cl     6     5.258893 A     10.556530 A
  |    Cl     6     5.323577 A     19.452854 A
  |    Cl     6     5.323577 A     22.526527 A
  |    Cl     6     5.389057 A     24.539118 A
  |    Cl     7     5.258893 A     17.640439 A
  |    Cl     7     5.194994 A     22.526527 A
  |    Cl     8     5.258893 A     21.190833 A

  | Shrink_full_auxil_basis : there are      110  radial auxiliary wave functions
                            accepted and     133 rejected.
  | Shrink_full_auxil_basis : there are totally              128886 partial auxiliary wave functions.
  prodbas_tasks_distribution_pbc not up to date - distributing tasks.
 
  | Number of product basis functions per thread :  3223
  Parallel distribution of product basis not up to date - distributing tasks.
 
  | Number of product basis functions per thread :    16
  | Minimal requirement for computer memory :           0.013 Gbs
  -----------------------------------------
  --- Initializing Fock matrix calculations
  -----------------------------------------
  screening_threshold (crit_val) =  0.000000100000
  coul_mat_threshold =  0.000000000100
  Number of super-cells in X Y Z:       6       6       6
  Number of atoms pairs total:          640
  Atom pair distribution:
  Cell:       -4       0       1 atom pairs:        1
  Cell:       -4       1       0 atom pairs:        1
  Cell:       -4       1       1 atom pairs:        2
  Cell:       -4       1       2 atom pairs:        1
  Cell:       -4       2       1 atom pairs:        1
  Cell:       -3      -2       1 atom pairs:        1
  Cell:       -3      -2       2 atom pairs:        1
  Cell:       -3      -1       0 atom pairs:        1
  Cell:       -3      -1       1 atom pairs:        2
  Cell:       -3      -1       2 atom pairs:        2
  Cell:       -3      -1       3 atom pairs:        1
  Cell:       -3       0      -1 atom pairs:        1
  Cell:       -3       0       0 atom pairs:        2
  Cell:       -3       0       1 atom pairs:        2
  Cell:       -3       0       2 atom pairs:        2
  Cell:       -3       0       3 atom pairs:        1
  Cell:       -3       1      -2 atom pairs:        1
  Cell:       -3       1      -1 atom pairs:        2
  Cell:       -3       1       0 atom pairs:        2
  Cell:       -3       1       1 atom pairs:        3
  Cell:       -3       1       2 atom pairs:        3
  Cell:       -3       1       3 atom pairs:        1
  Cell:       -3       2      -2 atom pairs:        1
  Cell:       -3       2      -1 atom pairs:        2
  Cell:       -3       2       0 atom pairs:        2
  Cell:       -3       2       1 atom pairs:        3
  Cell:       -3       2       2 atom pairs:        2
  Cell:       -3       3      -1 atom pairs:        1
  Cell:       -3       3       0 atom pairs:        1
  Cell:       -3       3       1 atom pairs:        1
  Cell:       -2      -3       1 atom pairs:        1
  Cell:       -2      -3       2 atom pairs:        1
  Cell:       -2      -2      -1 atom pairs:        1
  Cell:       -2      -2       0 atom pairs:        1
  Cell:       -2      -2       1 atom pairs:        2
  Cell:       -2      -2       2 atom pairs:        2
  Cell:       -2      -2       3 atom pairs:        2
  Cell:       -2      -1      -2 atom pairs:        1
  Cell:       -2      -1      -1 atom pairs:        2
  Cell:       -2      -1       0 atom pairs:        2
  Cell:       -2      -1       1 atom pairs:        3
  Cell:       -2      -1       2 atom pairs:        4
  Cell:       -2      -1       3 atom pairs:        3
  Cell:       -2      -1       4 atom pairs:        1
  Cell:       -2       0      -2 atom pairs:        1
  Cell:       -2       0      -1 atom pairs:        2
  Cell:       -2       0       0 atom pairs:        3
  Cell:       -2       0       1 atom pairs:        4
  Cell:       -2       0       2 atom pairs:        4
  Cell:       -2       0       3 atom pairs:        2
  Cell:       -2       1      -3 atom pairs:        1
  Cell:       -2       1      -2 atom pairs:        2
  Cell:       -2       1      -1 atom pairs:        3
  Cell:       -2       1       0 atom pairs:        4
  Cell:       -2       1       1 atom pairs:        4
  Cell:       -2       1       2 atom pairs:        4
  Cell:       -2       1       3 atom pairs:        2
  Cell:       -2       2      -3 atom pairs:        1
  Cell:       -2       2      -2 atom pairs:        2
  Cell:       -2       2      -1 atom pairs:        4
  Cell:       -2       2       0 atom pairs:        4
  Cell:       -2       2       1 atom pairs:        4
  Cell:       -2       2       2 atom pairs:        2
  Cell:       -2       2       3 atom pairs:        1
  Cell:       -2       3      -2 atom pairs:        2
  Cell:       -2       3      -1 atom pairs:        3
  Cell:       -2       3       0 atom pairs:        2
  Cell:       -2       3       1 atom pairs:        2
  Cell:       -2       3       2 atom pairs:        1
  Cell:       -2       4      -1 atom pairs:        1
  Cell:       -1      -3       0 atom pairs:        1
  Cell:       -1      -3       1 atom pairs:        2
  Cell:       -1      -3       2 atom pairs:        2
  Cell:       -1      -3       3 atom pairs:        1
  Cell:       -1      -2      -2 atom pairs:        1
  Cell:       -1      -2      -1 atom pairs:        2
  Cell:       -1      -2       0 atom pairs:        2
  Cell:       -1      -2       1 atom pairs:        3
  Cell:       -1      -2       2 atom pairs:        4
  Cell:       -1      -2       3 atom pairs:        3
  Cell:       -1      -2       4 atom pairs:        1
  Cell:       -1      -1      -2 atom pairs:        2
  Cell:       -1      -1      -1 atom pairs:        3
  Cell:       -1      -1       0 atom pairs:        4
  Cell:       -1      -1       1 atom pairs:        4
  Cell:       -1      -1       2 atom pairs:        4
  Cell:       -1      -1       3 atom pairs:        3
  Cell:       -1      -1       4 atom pairs:        2
  Cell:       -1       0      -3 atom pairs:        1
  Cell:       -1       0      -2 atom pairs:        2
  Cell:       -1       0      -1 atom pairs:        4
  Cell:       -1       0       0 atom pairs:        4
  Cell:       -1       0       1 atom pairs:        4
  Cell:       -1       0       2 atom pairs:        4
  Cell:       -1       0       3 atom pairs:        2
  Cell:       -1       0       4 atom pairs:        1
  Cell:       -1       1      -3 atom pairs:        2
  Cell:       -1       1      -2 atom pairs:        3
  Cell:       -1       1      -1 atom pairs:        4
  Cell:       -1       1       0 atom pairs:        4
  Cell:       -1       1       1 atom pairs:        4
  Cell:       -1       1       2 atom pairs:        3
  Cell:       -1       1       3 atom pairs:        2
  Cell:       -1       2      -3 atom pairs:        2
  Cell:       -1       2      -2 atom pairs:        4
  Cell:       -1       2      -1 atom pairs:        4
  Cell:       -1       2       0 atom pairs:        4
  Cell:       -1       2       1 atom pairs:        3
  Cell:       -1       2       2 atom pairs:        2
  Cell:       -1       2       3 atom pairs:        1
  Cell:       -1       3      -3 atom pairs:        1
  Cell:       -1       3      -2 atom pairs:        3
  Cell:       -1       3      -1 atom pairs:        3
  Cell:       -1       3       0 atom pairs:        2
  Cell:       -1       3       1 atom pairs:        2
  Cell:       -1       3       2 atom pairs:        1
  Cell:       -1       4      -2 atom pairs:        1
  Cell:       -1       4      -1 atom pairs:        2
  Cell:       -1       4       0 atom pairs:        1
  Cell:        0      -4       1 atom pairs:        1
  Cell:        0      -3      -1 atom pairs:        1
  Cell:        0      -3       0 atom pairs:        2
  Cell:        0      -3       1 atom pairs:        2
  Cell:        0      -3       2 atom pairs:        2
  Cell:        0      -3       3 atom pairs:        1
  Cell:        0      -2      -2 atom pairs:        1
  Cell:        0      -2      -1 atom pairs:        2
  Cell:        0      -2       0 atom pairs:        3
  Cell:        0      -2       1 atom pairs:        4
  Cell:        0      -2       2 atom pairs:        4
  Cell:        0      -2       3 atom pairs:        2
  Cell:        0      -1      -3 atom pairs:        1
  Cell:        0      -1      -2 atom pairs:        2
  Cell:        0      -1      -1 atom pairs:        4
  Cell:        0      -1       0 atom pairs:        4
  Cell:        0      -1       1 atom pairs:        4
  Cell:        0      -1       2 atom pairs:        4
  Cell:        0      -1       3 atom pairs:        2
  Cell:        0      -1       4 atom pairs:        1
  Cell:        0       0      -3 atom pairs:        2
  Cell:        0       0      -2 atom pairs:        3
  Cell:        0       0      -1 atom pairs:        4
  Cell:        0       0       0 atom pairs:        4
  Cell:        0       0       1 atom pairs:        4
  Cell:        0       0       2 atom pairs:        3
  Cell:        0       0       3 atom pairs:        2
  Cell:        0       1      -4 atom pairs:        1
  Cell:        0       1      -3 atom pairs:        2
  Cell:        0       1      -2 atom pairs:        4
  Cell:        0       1      -1 atom pairs:        4
  Cell:        0       1       0 atom pairs:        4
  Cell:        0       1       1 atom pairs:        4
  Cell:        0       1       2 atom pairs:        2
  Cell:        0       1       3 atom pairs:        1
  Cell:        0       2      -3 atom pairs:        2
  Cell:        0       2      -2 atom pairs:        4
  Cell:        0       2      -1 atom pairs:        4
  Cell:        0       2       0 atom pairs:        3
  Cell:        0       2       1 atom pairs:        2
  Cell:        0       2       2 atom pairs:        1
  Cell:        0       3      -3 atom pairs:        1
  Cell:        0       3      -2 atom pairs:        2
  Cell:        0       3      -1 atom pairs:        2
  Cell:        0       3       0 atom pairs:        2
  Cell:        0       3       1 atom pairs:        1
  Cell:        0       4      -1 atom pairs:        1
  Cell:        1      -4       0 atom pairs:        1
  Cell:        1      -4       1 atom pairs:        2
  Cell:        1      -4       2 atom pairs:        1
  Cell:        1      -3      -2 atom pairs:        1
  Cell:        1      -3      -1 atom pairs:        2
  Cell:        1      -3       0 atom pairs:        2
  Cell:        1      -3       1 atom pairs:        3
  Cell:        1      -3       2 atom pairs:        3
  Cell:        1      -3       3 atom pairs:        1
  Cell:        1      -2      -3 atom pairs:        1
  Cell:        1      -2      -2 atom pairs:        2
  Cell:        1      -2      -1 atom pairs:        3
  Cell:        1      -2       0 atom pairs:        4
  Cell:        1      -2       1 atom pairs:        4
  Cell:        1      -2       2 atom pairs:        4
  Cell:        1      -2       3 atom pairs:        2
  Cell:        1      -1      -3 atom pairs:        2
  Cell:        1      -1      -2 atom pairs:        3
  Cell:        1      -1      -1 atom pairs:        4
  Cell:        1      -1       0 atom pairs:        4
  Cell:        1      -1       1 atom pairs:        4
  Cell:        1      -1       2 atom pairs:        3
  Cell:        1      -1       3 atom pairs:        2
  Cell:        1       0      -4 atom pairs:        1
  Cell:        1       0      -3 atom pairs:        2
  Cell:        1       0      -2 atom pairs:        4
  Cell:        1       0      -1 atom pairs:        4
  Cell:        1       0       0 atom pairs:        4
  Cell:        1       0       1 atom pairs:        4
  Cell:        1       0       2 atom pairs:        2
  Cell:        1       0       3 atom pairs:        1
  Cell:        1       1      -4 atom pairs:        2
  Cell:        1       1      -3 atom pairs:        3
  Cell:        1       1      -2 atom pairs:        4
  Cell:        1       1      -1 atom pairs:        4
  Cell:        1       1       0 atom pairs:        4
  Cell:        1       1       1 atom pairs:        3
  Cell:        1       1       2 atom pairs:        2
  Cell:        1       2      -4 atom pairs:        1
  Cell:        1       2      -3 atom pairs:        3
  Cell:        1       2      -2 atom pairs:        4
  Cell:        1       2      -1 atom pairs:        3
  Cell:        1       2       0 atom pairs:        2
  Cell:        1       2       1 atom pairs:        2
  Cell:        1       2       2 atom pairs:        1
  Cell:        1       3      -3 atom pairs:        1
  Cell:        1       3      -2 atom pairs:        2
  Cell:        1       3      -1 atom pairs:        2
  Cell:        1       3       0 atom pairs:        1
  Cell:        2      -4       1 atom pairs:        1
  Cell:        2      -3      -2 atom pairs:        1
  Cell:        2      -3      -1 atom pairs:        2
  Cell:        2      -3       0 atom pairs:        2
  Cell:        2      -3       1 atom pairs:        3
  Cell:        2      -3       2 atom pairs:        2
  Cell:        2      -2      -3 atom pairs:        1
  Cell:        2      -2      -2 atom pairs:        2
  Cell:        2      -2      -1 atom pairs:        4
  Cell:        2      -2       0 atom pairs:        4
  Cell:        2      -2       1 atom pairs:        4
  Cell:        2      -2       2 atom pairs:        2
  Cell:        2      -2       3 atom pairs:        1
  Cell:        2      -1      -3 atom pairs:        2
  Cell:        2      -1      -2 atom pairs:        4
  Cell:        2      -1      -1 atom pairs:        4
  Cell:        2      -1       0 atom pairs:        4
  Cell:        2      -1       1 atom pairs:        3
  Cell:        2      -1       2 atom pairs:        2
  Cell:        2      -1       3 atom pairs:        1
  Cell:        2       0      -3 atom pairs:        2
  Cell:        2       0      -2 atom pairs:        4
  Cell:        2       0      -1 atom pairs:        4
  Cell:        2       0       0 atom pairs:        3
  Cell:        2       0       1 atom pairs:        2
  Cell:        2       0       2 atom pairs:        1
  Cell:        2       1      -4 atom pairs:        1
  Cell:        2       1      -3 atom pairs:        3
  Cell:        2       1      -2 atom pairs:        4
  Cell:        2       1      -1 atom pairs:        3
  Cell:        2       1       0 atom pairs:        2
  Cell:        2       1       1 atom pairs:        2
  Cell:        2       1       2 atom pairs:        1
  Cell:        2       2      -3 atom pairs:        2
  Cell:        2       2      -2 atom pairs:        2
  Cell:        2       2      -1 atom pairs:        2
  Cell:        2       2       0 atom pairs:        1
  Cell:        2       2       1 atom pairs:        1
  Cell:        2       3      -2 atom pairs:        1
  Cell:        2       3      -1 atom pairs:        1
  Cell:        3      -3      -1 atom pairs:        1
  Cell:        3      -3       0 atom pairs:        1
  Cell:        3      -3       1 atom pairs:        1
  Cell:        3      -2      -2 atom pairs:        2
  Cell:        3      -2      -1 atom pairs:        3
  Cell:        3      -2       0 atom pairs:        2
  Cell:        3      -2       1 atom pairs:        2
  Cell:        3      -2       2 atom pairs:        1
  Cell:        3      -1      -3 atom pairs:        1
  Cell:        3      -1      -2 atom pairs:        3
  Cell:        3      -1      -1 atom pairs:        3
  Cell:        3      -1       0 atom pairs:        2
  Cell:        3      -1       1 atom pairs:        2
  Cell:        3      -1       2 atom pairs:        1
  Cell:        3       0      -3 atom pairs:        1
  Cell:        3       0      -2 atom pairs:        2
  Cell:        3       0      -1 atom pairs:        2
  Cell:        3       0       0 atom pairs:        2
  Cell:        3       0       1 atom pairs:        1
  Cell:        3       1      -3 atom pairs:        1
  Cell:        3       1      -2 atom pairs:        2
  Cell:        3       1      -1 atom pairs:        2
  Cell:        3       1       0 atom pairs:        1
  Cell:        3       2      -2 atom pairs:        1
  Cell:        3       2      -1 atom pairs:        1
  Cell:        4      -2      -1 atom pairs:        1
  Cell:        4      -1      -2 atom pairs:        1
  Cell:        4      -1      -1 atom pairs:        2
  Cell:        4      -1       0 atom pairs:        1
  Cell:        4       0      -1 atom pairs:        1
  Number of atoms pairs in BvK cells:          640
  Initializing work distribution for fock matrix calculation
  -----------------------------------------------------
  Dividing atoms among tasks for exact exchange energy:
  Atom:     1 Weight:   250.00
  Atom:     2 Weight:   368.00

  Average weight per task:   15.450

  Number of "big" (above average) atoms  :     2
  Number of "small" (below average) atoms:     0
  All atoms have above average work per task
  Atoms will be divided among tasks to get best load distribution

  Atom division among tasks:
  Atom     1: (initial) task:     0, # of tasks:    16
  Atom     2: (initial) task:    16, # of tasks:    24

  -----------------------------------------------------
  Task     0 : Coulomb matrix distribution changed.
  Task     1 : Coulomb matrix distribution changed.
  Task     2 : Coulomb matrix distribution changed.
  Task     3 : Coulomb matrix distribution changed.
  Task     4 : Coulomb matrix distribution changed.
  Task     5 : Coulomb matrix distribution changed.
  Task     6 : Coulomb matrix distribution changed.
  Task     7 : Coulomb matrix distribution changed.
  Task     8 : Coulomb matrix distribution changed.
  Task     9 : Coulomb matrix distribution changed.
  Task    10 : Coulomb matrix distribution changed.
  Task    11 : Coulomb matrix distribution changed.
  Task    12 : Coulomb matrix distribution changed.
  Task    13 : Coulomb matrix distribution changed.
  Task    14 : Coulomb matrix distribution changed.
  Task    15 : Coulomb matrix distribution changed.
  Task    16 : Coulomb matrix distribution changed.
  Task    17 : Coulomb matrix distribution changed.
  Task    18 : Coulomb matrix distribution changed.
  Task    19 : Coulomb matrix distribution changed.
  Task    20 : Coulomb matrix distribution changed.
  Task    21 : Coulomb matrix distribution changed.
  Task    22 : Coulomb matrix distribution changed.
  Task    23 : Coulomb matrix distribution changed.
  Task    24 : Coulomb matrix distribution changed.
  Task    25 : Coulomb matrix distribution changed.
  Task    26 : Coulomb matrix distribution changed.
  Task    27 : Coulomb matrix distribution changed.
  Task    28 : Coulomb matrix distribution changed.
  Task    29 : Coulomb matrix distribution changed.
  Task    30 : Coulomb matrix distribution changed.
  Task    31 : Coulomb matrix distribution changed.
  Task    32 : Coulomb matrix distribution changed.
  Task    33 : Coulomb matrix distribution changed.
  Task    34 : Coulomb matrix distribution changed.
  Task    35 : Coulomb matrix distribution changed.
  Task    36 : Coulomb matrix distribution changed.
  Task    37 : Coulomb matrix distribution changed.
  Task    38 : Coulomb matrix distribution changed.
  Task    39 : Coulomb matrix distribution changed.
  Overall Coulomb matrix distribution changed.
  Coulomb matrix subdivision:
  Task     0 atom     1 has        256 Coulomb matrix cells
  Task      0: my_n_atoms:      1 my_atom_list:      1
  Task      1: my_n_atoms:      1 my_atom_list:      1
  Task      2: my_n_atoms:      1 my_atom_list:      1
  Task      3: my_n_atoms:      1 my_atom_list:      1
  Task      4: my_n_atoms:      1 my_atom_list:      1
  Task      5: my_n_atoms:      1 my_atom_list:      1
  Task      6: my_n_atoms:      1 my_atom_list:      1
  Task      7: my_n_atoms:      1 my_atom_list:      1
  Task      8: my_n_atoms:      1 my_atom_list:      1
  Task      9: my_n_atoms:      1 my_atom_list:      1
  Task     10: my_n_atoms:      1 my_atom_list:      1
  Task     11: my_n_atoms:      1 my_atom_list:      1
  Task     12: my_n_atoms:      1 my_atom_list:      1
  Task     13: my_n_atoms:      1 my_atom_list:      1
  Task     14: my_n_atoms:      1 my_atom_list:      1
  Task     15: my_n_atoms:      1 my_atom_list:      1
  Task     16: my_n_atoms:      1 my_atom_list:      2
  Task     17: my_n_atoms:      1 my_atom_list:      2
  Task     18: my_n_atoms:      1 my_atom_list:      2
  Task     19: my_n_atoms:      1 my_atom_list:      2
  Task     20: my_n_atoms:      1 my_atom_list:      2
  Task     21: my_n_atoms:      1 my_atom_list:      2
  Task     22: my_n_atoms:      1 my_atom_list:      2
  Task     23: my_n_atoms:      1 my_atom_list:      2
  Task     24: my_n_atoms:      1 my_atom_list:      2
  Task     25: my_n_atoms:      1 my_atom_list:      2
  Task     26: my_n_atoms:      1 my_atom_list:      2
  Task     27: my_n_atoms:      1 my_atom_list:      2
  Task     28: my_n_atoms:      1 my_atom_list:      2
  Task     29: my_n_atoms:      1 my_atom_list:      2
  Task     30: my_n_atoms:      1 my_atom_list:      2
  Task     31: my_n_atoms:      1 my_atom_list:      2
  Task     32: my_n_atoms:      1 my_atom_list:      2
  Task     33: my_n_atoms:      1 my_atom_list:      2
  Task     34: my_n_atoms:      1 my_atom_list:      2
  Task     35: my_n_atoms:      1 my_atom_list:      2
  Task     36: my_n_atoms:      1 my_atom_list:      2
  Task     37: my_n_atoms:      1 my_atom_list:      2
  Task     38: my_n_atoms:      1 my_atom_list:      2
  Task     39: my_n_atoms:      1 my_atom_list:      2
  Task      0: my_n_atom_pairs:     25
  Task      1: my_n_atom_pairs:     25
  Task      2: my_n_atom_pairs:     25
  Task      3: my_n_atom_pairs:     25
  Task      4: my_n_atom_pairs:     25
  Task      5: my_n_atom_pairs:     24
  Task      6: my_n_atom_pairs:     24
  Task      7: my_n_atom_pairs:     24
  Task      8: my_n_atom_pairs:     24
  Task      9: my_n_atom_pairs:     24
  Task     10: my_n_atom_pairs:     24
[...]
  **      the keyword 'empty_states' until the behavior goes      **
  **                        away to fix it.                       **
  ******************************************************************

  ******************************************************************
  **                   Under Active Development:                  **
  **                          Cube files                          **
  **       Optimization (memory usage, large scale support)       **
  **                       Self-Consistency                       **
  **      If any of the preceeding are absolutely necessary,      **
  **       please contact william.huhn@duke.edu for updates.      **
  ******************************************************************

  Performing quasi-degenerate perturbation theory at an order of 1
  Using a matrix tolerance of               0.100000
  Using an eigenvalue tolerance of 1000000000.000000

 Allocating memory for main spin-orbit coupling matrices...
  Allocating        0.000 MB for KS_eigenvector_soc_perturbed_wf_basis
  Allocating        0.000 MB for KS_eigenvector_soc_perturbed_compute_basis
  Allocating        0.000 MB for spin_projection
  Allocating        5.443 MB for soc_matrix
  Allocating        0.037 MB for SOC_Hamiltonian
  Allocating        0.000 MB for temp_KS_eigenvalue_perturbed

  Integrating SOC matrix: batch-based integration p2 version.
  Allocating        0.134 MB for dist_tab
  Allocating        0.134 MB for dist_tab_sq
  Allocating        0.401 MB for dir_tab
  Allocating        0.012 MB for i_basis_fns
  Allocating        0.369 MB for i_basis_fns_inv
  Allocating        0.012 MB for i_atom_fns
  Allocating        3.575 MB for gradient_basis_wave
  Allocating        0.010 MB for ylm_tab
  Allocating        0.003 MB for radial_wave
  Allocating        0.003 MB for radial_wave_deriv
  Allocating        0.014 MB for i_basis
  Allocating       71.560 MB for soc_shell
  Allocating        0.031 MB for sum_gradient
  Allocating        0.061 MB for sum_hessian
  Allocating        0.001 MB for hartree_shell

  Determining occupation numbers for SOC-perturbed Kohn-Sham eigenstates.
  | Chemical potential (Fermi level) in eV                 : -.7646E+01
  | Error in electron count due to remaining E_F inaccuracy: 0.0000E+00

  Largest matrix element of SOC matrix is   3.500155941081488E-002

  Writing SOC-perturbed Kohn-Sham eigenvalues.
  K-point:       1 at    0.000000    0.000000    0.000000 (in units of recip. lattice)

  State    Original State    Occupation    Unperturbed Eigenvalue [eV]    Eigenvalue [eV]    Level Spacing [eV]
      1                 1       1.00000                   -3570.021076       -3570.021076             0.000000
      2                 2       1.00000                   -3570.021076       -3570.021076             0.000000
      3                 3       1.00000                   -2787.994599       -2787.994599           782.026478
      4                 4       1.00000                   -2787.994599       -2787.994599             0.000000
      5                 5       1.00000                    -364.922730        -364.922730          2423.071869
      6                 6       1.00000                    -364.922730        -364.922730             0.000000
      7                 7       1.00000                    -288.870843        -290.778881            74.143849
      8                 8       1.00000                    -288.870843        -290.778881             0.000000
      9                 9       1.00000                    -288.870843        -287.917721             2.861160
     10                10       1.00000                    -288.870843        -287.917721             0.000000
     11                11       1.00000                    -288.870843        -287.917721             0.000000
     12                12       1.00000                    -288.870843        -287.917721             0.000000
     13                13       1.00000                    -261.289550        -261.289550            26.628170
     14                14       1.00000                    -261.289550        -261.289550             0.000000
     15                15       1.00000                    -197.698187        -198.812090            62.477460
     16                16       1.00000                    -197.698187        -198.812090             0.000000
     17                17       1.00000                    -197.698187        -197.141565             1.670525
     18                18       1.00000                    -197.698187        -197.141565             0.000000
     19                19       1.00000                    -197.698187        -197.141565             0.000000
     20                20       1.00000                    -197.698187        -197.141565             0.000000
     21                21       1.00000                     -39.054055         -39.054055           158.087510
     22                22       1.00000                     -39.054055         -39.054055             0.000000
     23                23       1.00000                     -23.112730         -23.112730            15.941325
     24                24       1.00000                     -23.112730         -23.112730             0.000000
     25                25       1.00000                     -21.158316         -21.331603             1.781127
     26                26       1.00000                     -21.158316         -21.331603             0.000000
     27                27       1.00000                     -21.158315         -21.070803             0.260800
     28                28       1.00000                     -21.158315         -21.070803             0.000000
     29                29       1.00000                     -21.158315         -21.070803             0.000000
     30                30       1.00000                     -21.158315         -21.070803             0.000000
     31                31       1.00000                      -9.831873          -9.910745            11.160058
     32                32       1.00000                      -9.831873          -9.910745             0.000000
     33                33       1.00000                      -9.831873          -9.792082             0.118662
     34                34       1.00000                      -9.831873          -9.792082             0.000000
     35                35       1.00000                      -9.831872          -9.792077             0.000005
     36                36       1.00000                      -9.831872          -9.792077             0.000000
     37                37       0.00000                      -3.366555          -3.366555             6.425523
     38                38       0.00000                      -3.366555          -3.366555             0.000000
     39                39       0.00000                       0.118753           0.117928             3.484482
     40                40       0.00000                       0.118753           0.117928             0.000000
     41                41       0.00000                       0.118753           0.117932             0.000004
     42                42       0.00000                       0.118753           0.117932             0.000000
     43                43       0.00000                       0.118754           0.120393             0.002461
     44                44       0.00000                       0.118754           0.120393             0.000000
     45                45       0.00000                       1.091714           1.091710             0.971318
     46                46       0.00000                       1.091714           1.091710             0.000000
     47                47       0.00000                       1.091715           1.091727             0.000016
     48                48       0.00000                       1.091715           1.091727             0.000000

  What follows are estimated values for band gap, HOMO, LUMO, etc., for SOC-perturbed eigenvalues.
  | They are estimated on a discrete k-point grid and not necessarily exact.
  | For converged numbers, create a DOS and/or band structure plot on a denser k-grid.

  Highest occupied state (VBM) at     -9.79207745 eV (relative to internal zero)
  | Occupation number:      1.00000000
  | K-point:       1 at    0.000000    0.000000    0.000000 (in units of recip. lattice)

  Lowest unoccupied state (CBM) at    -3.36655454 eV (relative to internal zero)
  | Occupation number:      0.00000000
  | K-point:       1 at    0.000000    0.000000    0.000000 (in units of recip. lattice)

  ESTIMATED overall HOMO-LUMO gap:      6.42552291 eV between HOMO at k-point 1 and LUMO at k-point 1
  | This appears to be a direct band gap.
  The gap value is above 0.2 eV. Unless you are using a very sparse k-point grid,
  this system is most likely an insulator or a semiconductor.

  Calculating total density of states with spin-orbit coupling ...
  | Chemical potential is  -7.645890 eV.
  | writing DOS (shifted by electron chemical potential) to file KS_dos_total.dat
  | writing DOS (raw data) to file KS_dos_total_raw.dat

  Spin-orbit coupling                                     :  max(cpu_time)    wall_clock(cpu1)
  | Computing matrix elements                             :          2.880               2.879
  | Performing perturbations                              :          0.537               0.537
  | Syncing data and calculating occupations              :          0.111               0.102
  | Writing out data, calculating band gaps, etc.         :          2.146               2.150
  | Total SOC time                                        :          5.673               5.668
 ------------------------------------------------------------

  -------------------------------------------------------------------
  Writing the requested band structure output:
  -------------------------------------------------------------------

  Integrating Hamiltonian matrix: batch-based integration.
  Time summed over all CPUs for integration: real work       20.575 s, elapsed       22.255 s
  Integrating SOC matrix: batch-based integration p2 version.
  Allocating        0.134 MB for dist_tab
  Allocating        0.134 MB for dist_tab_sq
  Allocating        0.401 MB for dir_tab
  Allocating        0.012 MB for i_basis_fns
  Allocating        0.369 MB for i_basis_fns_inv
  Allocating        0.012 MB for i_atom_fns
  Allocating        3.575 MB for gradient_basis_wave
  Allocating        0.010 MB for ylm_tab
  Allocating        0.003 MB for radial_wave
  Allocating        0.003 MB for radial_wave_deriv
  Allocating        0.014 MB for i_basis
  Allocating       71.560 MB for soc_shell
  Allocating        0.031 MB for sum_gradient
  Allocating        0.061 MB for sum_hessian
  Allocating        0.001 MB for hartree_shell

  Treating all   21 k-points in band plot segment #   1:


  "Band gap" along reciprocal space direction number:    1
  | Lowest unoccupied state:      -3.36655454 eV
  | Highest occupied state :      -9.79207745 eV
  | Energy difference      :       6.42552291 eV


  Treating all   21 k-points in band plot segment #   2:


  "Band gap" along reciprocal space direction number:    2
  | Lowest unoccupied state:      -1.91284697 eV
  | Highest occupied state :     -10.03470312 eV
  | Energy difference      :       8.12185615 eV


  Treating all   21 k-points in band plot segment #   3:


  "Band gap" along reciprocal space direction number:    3
  | Lowest unoccupied state:      -1.12126331 eV
  | Highest occupied state :     -10.13233473 eV
  | Energy difference      :       9.01107142 eV


  Treating all   21 k-points in band plot segment #   4:


  "Band gap" along reciprocal space direction number:    4
  | Lowest unoccupied state:      -3.36655454 eV
  | Highest occupied state :      -9.79207745 eV
  | Energy difference      :       6.42552291 eV


  Treating all   21 k-points in band plot segment #   5:


  "Band gap" along reciprocal space direction number:    5
  | Lowest unoccupied state:      -3.36655454 eV
  | Highest occupied state :      -9.79207745 eV
  | Energy difference      :       6.42552291 eV


  Treating all   21 k-points in band plot segment #   6:


  "Band gap" along reciprocal space direction number:    6
  | Lowest unoccupied state:      -1.12126663 eV
  | Highest occupied state :     -10.13233387 eV
  | Energy difference      :       9.01106724 eV


  Treating all   21 k-points in band plot segment #   7:


  "Band gap" along reciprocal space direction number:    7
  | Lowest unoccupied state:      -1.12126663 eV
  | Highest occupied state :     -10.13233387 eV
  | Energy difference      :       9.01106724 eV


  Treating all   21 k-points in band plot segment #   8:


  "Band gap" along reciprocal space direction number:    8
  | Lowest unoccupied state:      -0.93042399 eV
  | Highest occupied state :     -10.13552407 eV
  | Energy difference      :       9.20510008 eV


  Treating all   21 k-points in band plot segment #   9:


  "Band gap" along reciprocal space direction number:    9
  | Lowest unoccupied state:      -1.12126331 eV
  | Highest occupied state :     -10.13233473 eV
  | Energy difference      :       9.01107142 eV


  Treating all   21 k-points in band plot segment #  10:


  "Band gap" along reciprocal space direction number:   10
  | Lowest unoccupied state:      -1.91284697 eV
  | Highest occupied state :     -10.03470312 eV
  | Energy difference      :       8.12185615 eV

  "Band gap" of total set of bands:
  | Lowest unoccupied state:      -3.36655454 eV
  | Highest occupied state :      -9.79207745 eV
  | Energy difference      :       6.42552291 eV


  Band Structure                                          :  max(cpu_time) wall_clock(cpu1)
  | Total Time                                            :        430.188          430.036
  ------------------------------------------------------------

------------------------------------------------------------------------------
  Final output of selected total energy values:

  The following output summarizes some interesting total energy values
  at the end of a run (AFTER all relaxation, molecular dynamics, etc.).

  | Total energy of the DFT / Hartree-Fock s.c.f. calculation      :         -29005.325086225 eV
  | Final zero-broadening corrected energy (caution - metals only) :         -29005.325086225 eV
  | Total energy after non-SC SOC correction (DO NOT USE)          :         -29005.326037730 eV
  | For reference only, the value of 1 Hartree used in FHI-aims is :             27.211384500 eV

  Before relying on these values, please be sure to understand exactly which
  total energy value is referred to by a given number. Different objects may
  all carry the same name 'total energy'. Definitions:

  Total energy of the DFT / Hartree-Fock s.c.f. calculation:
  | Note that this energy does not include ANY quantities calculated after the
  | s.c.f. cycle, in particular not ANY RPA, MP2, etc. many-body perturbation terms.

  Final zero-broadening corrected energy:
  | For metallic systems only, a broadening of the occupation numbers at the Fermi
  | level can be extrapolated back to zero broadening by an electron-gas inspired
  | formula. For all systems that are not real metals, this value can be
  | meaningless and should be avoided.

------------------------------------------------------------------------------
  Methods described in the following list of references were used in this FHI-aims run.
  If you publish the results, please make sure to cite these reference if they apply.
  FHI-aims is an academic code, and for our developers (often, Ph.D. students
  and postdocs), scientific credit in the community is essential.
  Thank you for helping us!

  For any use of FHI-aims, please cite:

    Volker Blum, Ralf Gehrke, Felix Hanke, Paula Havu, Ville Havu,
    Xinguo Ren, Karsten Reuter, and Matthias Scheffler
    'Ab initio molecular simulations with numeric atom-centered orbitals'
    Computer Physics Communications 180, 2175-2196 (2009)
    http://dx.doi.org/10.1016/j.cpc.2009.06.022


  For perturbative spin-orbit coupling used in your run, please cite:

    At the time of this release, we are working on two manuscripts benchmarking
    the SOC code, with one of them near publication.  By the time your paper
    reaches the publication stage, we should have these papers ready for citation.
    Please contact william.huhn@duke.edu (and volker.blum@duke.edu) for the
    finalized citations.


  For Hartree-Fock, hybrid functionals, or many-body perturbation theory used in your run, please cite:

    Xinguo Ren, Patrick Rinke, Volker Blum, Juergen Wieferink, Alex Tkatchenko,
    Andrea Sanfilippo, Karsten Reuter, and Matthias Scheffler,
    'Resolution-of-identity approach to Hartree-Fock, hybrid density functionals,
    RPA, MP2, and GW with numeric atom-centered orbital basis functions'
    New Journal of Physics 14, 053020 (2012).
    http://dx.doi.org/10.1088/1367-2630/14/5/053020


  The provided symmetry information have been generated with SPGlib:

    Atsushi Togo, Yusuke Seto, Dimitar Pashov
    SPGlib 1.7.3 obtained from http://spglib.sourceforge.net
    Copyright (C) 2008 Atsushi Togo


  For the real-space grid partitioning and parallelization used in this calculation, please cite:

    Ville Havu, Volker Blum, Paula Havu, and Matthias Scheffler,
    'Efficient O(N) integration for all-electron electronic structure calculation'
    'using numerically tabulated basis functions'
    Journal of Computational Physics 228, 8367-8379 (2009).
    http://dx.doi.org/10.1016/j.jcp.2009.08.008

  Of course, there are many other important community references, e.g., those cited in the
  above references. Our list is limited to references that describe implementations in the
  FHI-aims code. The reason is purely practical (length of this list) - please credit others as well.

------------------------------------------------------------
          Leaving FHI-aims.
          Date     :  20160229, Time     :  080022.487

          Computational steps:
          | Number of self-consistency cycles          :           14

          Detailed time accounting                     :  max(cpu_time)    wall_clock(cpu1)
          | Total time                                 :     8355.204 s        8351.960 s
          | Preparation time                           :        0.420 s           0.424 s
          | Grid partitioning                          :        0.073 s           0.072 s
          | Preloading free-atom quantities on grid    :        0.046 s           0.044 s
          | Free-atom superposition energy             :        0.015 s           0.014 s
          | Total time for integrations                :        9.521 s           9.495 s
          | Product basis setup: Total time            :     1179.555 s        1178.605 s
          | Total time evaluating exchange matrix      :     6696.608 s        6691.198 s
          | Total time for solution of K.-S. equations :        6.880 s           6.869 s
          | Total time for density update              :       20.301 s          20.279 s
          | Total time for mixing                      :        0.015 s           0.011 s
          | Total time for Hartree multipole update    :        0.090 s           0.078 s
          | Total time for Hartree multipole sum       :        3.281 s           3.266 s
          | Total time for total energy evaluation     :        0.031 s           0.031 s
          | Total time for scaled ZORA corrections     :        0.000 s           0.000 s
          | Total time for perturbative SOC            :        5.717 s           5.668 s
          | Total time for band structures, DOS        :      432.544 s         430.195 s

          Have a nice day.
------------------------------------------------------------
