<?xml version="1.0" encoding="ISO-8859-1"?>
<modeling>
 <generator>
  <i name="program" type="string">vasp </i>
  <i name="version" type="string">5.4.4.18Apr17-6-g9f103f2a35  </i>
  <i name="subversion" type="string">(build Jul 30 2020 14:31:59) complex            parallel </i>
  <i name="platform" type="string">LinuxIFC </i>
  <i name="date" type="string">2022 10 17 </i>
  <i name="time" type="string">14:36:16 </i>
 </generator>
 <incar>
  <i type="int" name="ISTART">     0</i>
  <i type="string" name="PREC">accurate</i>
  <i type="string" name="ALGO"> Fast</i>
  <i type="int" name="ISPIN">     2</i>
  <i type="int" name="ICHARG">     1</i>
  <i type="int" name="IBRION">     2</i>
  <i name="EDIFF">      0.00000100</i>
  <i name="EDIFFG">     -0.02000000</i>
  <i type="int" name="NSW">    60</i>
  <i type="int" name="ISIF">     2</i>
  <i name="ENCUT">    400.00000000</i>
  <i name="POTIM">      0.10000000</i>
  <i type="string" name="LREAL"> AUTO</i>
  <i type="int" name="ISMEAR">     1</i>
  <i name="SIGMA">      0.10000000</i>
  <i type="logical" name="LWAVE"> F  </i>
  <i type="logical" name="LCHARG"> T  </i>
  <i type="logical" name="LASPH"> T  </i>
  <v type="int" name="KPOINT_BSE">    -1     0     0     0</v>
  <i type="string" name="GGA"> RP</i>
  <i type="logical" name="LDIPOL"> T  </i>
  <i type="int" name="IDIPOL">     3</i>
  <v name="DIPOL">      0.50000000      0.50000000      0.50000000</v>
  <i type="logical" name="LASPH"> T  </i>
 </incar>
 <structure name="primitive_cell" >
  <crystal>
   <varray name="basis" >
    <v>       8.93075865       0.00000000       0.00000000 </v>
    <v>       4.46537932       7.73426386       0.00000000 </v>
    <v>       0.00000000       0.00000000      24.72257853 </v>
   </varray>
   <i name="volume">   1707.65880700 </i>
   <varray name="rec_basis" >
    <v>       0.11197257      -0.06464739       0.00000000 </v>
    <v>       0.00000000       0.12929479       0.00000000 </v>
    <v>       0.00000000       0.00000000       0.04044886 </v>
   </varray>
  </crystal>
  <varray name="positions" >
   <v>      -0.11111111       0.22222222       0.30336641 </v>
   <v>      -0.44444444       0.22222222       0.30336641 </v>
   <v>      -0.44444444      -0.44444444       0.30336641 </v>
   <v>       0.00000000       0.00000000       0.40168321 </v>
   <v>      -0.33333333       0.33333333       0.40168321 </v>
   <v>      -0.11111111      -0.44444444       0.30336641 </v>
   <v>      -0.11111111      -0.11111111       0.30336641 </v>
   <v>       0.22222222      -0.11111111       0.30336641 </v>
   <v>       0.22222222       0.22222222       0.30336641 </v>
   <v>       0.00000000       0.33333333       0.40168321 </v>
   <v>      -0.33333333      -0.33333333       0.40168321 </v>
   <v>      -0.33333333       0.00000000       0.40168321 </v>
   <v>       0.33333333       0.00000000       0.40168321 </v>
   <v>       0.33333333       0.33333333       0.40168321 </v>
   <v>       0.33333333      -0.33333333       0.40168321 </v>
   <v>       0.22222222      -0.44444444       0.30336641 </v>
   <v>      -0.44444444      -0.11111111       0.30336641 </v>
   <v>       0.00000000      -0.33333333       0.40168321 </v>
   <v>      -0.22209562       0.44419123      -0.49961525 </v>
   <v>       0.11075049       0.11075049      -0.49943196 </v>
   <v>      -0.22150099       0.11075049      -0.49943196 </v>
   <v>       0.11086166       0.44456917       0.49981223 </v>
   <v>       0.44456917       0.44456917       0.49981223 </v>
   <v>       0.11075049      -0.22150099      -0.49943196 </v>
   <v>       0.44456917       0.11086166       0.49981223 </v>
   <v>      -0.22209562      -0.22209562      -0.49961525 </v>
   <v>       0.44419123      -0.22209562      -0.49961525 </v>
   <v>      -0.11139329       0.22278658      -0.40076530 </v>
   <v>      -0.44597862       0.22298931      -0.40206700 </v>
   <v>       0.22298931       0.22298931      -0.40206700 </v>
   <v>      -0.11094396      -0.44452802      -0.40149350 </v>
   <v>      -0.44452802      -0.44452802      -0.40149350 </v>
   <v>       0.22278658      -0.11139329      -0.40076530 </v>
   <v>      -0.11139329      -0.11139329      -0.40076530 </v>
   <v>       0.22298931      -0.44597862      -0.40206700 </v>
   <v>      -0.44452802      -0.11094396      -0.40149350 </v>
   <v>       0.00000000       0.00000000      -0.30264136 </v>
   <v>      -0.33411606       0.33303373      -0.30253177 </v>
   <v>       0.00108233       0.33303373      -0.30253177 </v>
   <v>      -0.33333333      -0.33333333      -0.30358673 </v>
   <v>      -0.33411606       0.00108233      -0.30253177 </v>
   <v>       0.33303373       0.00108233      -0.30253177 </v>
   <v>       0.33333333       0.33333333      -0.30541347 </v>
   <v>       0.33303373      -0.33411606      -0.30253177 </v>
   <v>       0.00108233      -0.33411606      -0.30253177 </v>
   <v>       0.33333333       0.33333333      -0.23365063 </v>
  </varray>
 </structure>
 <varray name="primitive_index" >
  <v type="int" >        1 </v>
  <v type="int" >        3 </v>
  <v type="int" >        6 </v>
  <v type="int" >       10 </v>
  <v type="int" >       15 </v>
  <v type="int" >        4 </v>
  <v type="int" >        7 </v>
  <v type="int" >        8 </v>
  <v type="int" >        2 </v>
  <v type="int" >       13 </v>
  <v type="int" >       18 </v>
  <v type="int" >       12 </v>
  <v type="int" >       11 </v>
  <v type="int" >       14 </v>
  <v type="int" >       17 </v>
  <v type="int" >        5 </v>
  <v type="int" >        9 </v>
  <v type="int" >       16 </v>
  <v type="int" >       24 </v>
  <v type="int" >       19 </v>
  <v type="int" >       21 </v>
  <v type="int" >       22 </v>
  <v type="int" >       23 </v>
  <v type="int" >       25 </v>
  <v type="int" >       20 </v>
  <v type="int" >       27 </v>
  <v type="int" >       26 </v>
  <v type="int" >       28 </v>
  <v type="int" >       30 </v>
  <v type="int" >       29 </v>
  <v type="int" >       31 </v>
  <v type="int" >       33 </v>
  <v type="int" >       35 </v>
  <v type="int" >       34 </v>
  <v type="int" >       32 </v>
  <v type="int" >       36 </v>
  <v type="int" >       37 </v>
  <v type="int" >       41 </v>
  <v type="int" >       40 </v>
  <v type="int" >       44 </v>
  <v type="int" >       39 </v>
  <v type="int" >       38 </v>
  <v type="int" >       45 </v>
  <v type="int" >       43 </v>
  <v type="int" >       42 </v>
  <v type="int" >       46 </v>
 </varray>
 <kpoints>
  <generation param="Monkhorst-Pack">
   <v type="int" name="divisions">       3        3        1 </v>
   <v name="usershift">      0.00000000       0.00000000       0.00000000 </v>
   <v name="genvec1">      0.33333333      -0.00000000       0.00000000 </v>
   <v name="genvec2">      0.00000000       0.33333333       0.00000000 </v>
   <v name="genvec3">      0.00000000       0.00000000       1.00000000 </v>
   <v name="shift">      0.00000000       0.00000000       0.00000000 </v>
  </generation>
  <varray name="kpointlist" >
   <v>       0.00000000       0.00000000       0.00000000 </v>
   <v>       0.33333333       0.00000000       0.00000000 </v>
   <v>      -0.33333333       0.33333333       0.00000000 </v>
  </varray>
  <varray name="weights" >
   <v>       0.11111111 </v>
   <v>       0.66666667 </v>
   <v>       0.22222222 </v>
  </varray>
 </kpoints>
 <parameters>
  <separator name="general" >
   <i type="string" name="SYSTEM">unknown system</i>
   <i type="logical" name="LCOMPAT"> F  </i>
  </separator>
  <separator name="electronic" >
   <i type="string" name="PREC">accura</i>
   <i name="ENMAX">    400.00000000</i>
   <i name="ENAUG">    627.11200000</i>
   <i name="EDIFF">      0.00000100</i>
   <i type="int" name="IALGO">    68</i>
   <i type="int" name="IWAVPR">    11</i>
   <i type="int" name="NBANDS">   325</i>
   <i name="NELECT">    499.00000000</i>
   <i type="int" name="TURBO">     0</i>
   <i type="int" name="IRESTART">     0</i>
   <i type="int" name="NREBOOT">     0</i>
   <i type="int" name="NMIN">     0</i>
   <i name="EREF">      0.00000000</i>
   <separator name="electronic smearing" >
    <i type="int" name="ISMEAR">     1</i>
    <i name="SIGMA">      0.10000000</i>
    <i name="KSPACING">      0.50000000</i>
    <i type="logical" name="KGAMMA"> T  </i>
   </separator>
   <separator name="electronic projectors" >
    <i type="logical" name="LREAL"> T  </i>
    <v name="ROPT">     -0.00025000     -0.00025000     -0.00025000</v>
    <i type="int" name="LMAXPAW">  -100</i>
    <i type="int" name="LMAXMIX">     2</i>
    <i type="logical" name="NLSPLINE"> F  </i>
   </separator>
   <separator name="electronic startup" >
    <i type="int" name="ISTART">     0</i>
    <i type="int" name="ICHARG">     1</i>
    <i type="int" name="INIWAV">     1</i>
   </separator>
   <separator name="electronic spin" >
    <i type="int" name="ISPIN">     2</i>
    <i type="logical" name="LNONCOLLINEAR"> F  </i>
    <v name="MAGMOM">      1.00000000      1.00000000      1.00000000      1.00000000      1.00000000      1.00000000      1.00000000      1.00000000      1.00000000      1.00000000      1.00000000      1.00000000      1.00000000      1.00000000      1.00000000      1.00000000      1.00000000      1.00000000      1.00000000      1.00000000
      1.00000000      1.00000000      1.00000000      1.00000000      1.00000000      1.00000000      1.00000000      1.00000000      1.00000000      1.00000000      1.00000000      1.00000000      1.00000000      1.00000000      1.00000000      1.00000000      1.00000000      1.00000000      1.00000000      1.00000000
      1.00000000      1.00000000      1.00000000      1.00000000      1.00000000      1.00000000</v>
    <i name="NUPDOWN">     -1.00000000</i>
    <i type="logical" name="LSORBIT"> F  </i>
    <v name="SAXIS">      0.00000000      0.00000000      1.00000000</v>
    <i type="logical" name="LSPIRAL"> F  </i>
    <v name="QSPIRAL">      0.00000000      0.00000000      0.00000000</v>
    <i type="logical" name="LZEROZ"> F  </i>
   </separator>
   <separator name="electronic exchange-correlation" >
    <i type="logical" name="LASPH"> T  </i>
    <i type="logical" name="LMETAGGA"> F  </i>
   </separator>
   <separator name="electronic convergence" >
    <i type="int" name="NELM">    60</i>
    <i type="int" name="NELMDL">    -5</i>
    <i type="int" name="NELMIN">     2</i>
    <i name="ENINI">    400.00000000</i>
    <separator name="electronic convergence detail" >
     <i type="logical" name="LDIAG"> T  </i>
     <i type="logical" name="LSUBROT"> F  </i>
     <i name="WEIMIN">      0.00100000</i>
     <i name="EBREAK">      0.00000000</i>
     <i name="DEPER">      0.30000000</i>
     <i type="int" name="NRMM">     4</i>
     <i name="TIME">      0.40000000</i>
    </separator>
   </separator>
   <separator name="electronic mixer" >
    <i name="AMIX">      0.40000000</i>
    <i name="BMIX">      1.00000000</i>
    <i name="AMIN">      0.10000000</i>
    <i name="AMIX_MAG">      1.60000000</i>
    <i name="BMIX_MAG">      1.00000000</i>
    <separator name="electronic mixer details" >
     <i type="int" name="IMIX">     4</i>
     <i type="logical" name="MIXFIRST"> F  </i>
     <i type="int" name="MAXMIX">   -45</i>
     <i name="WC">    100.00000000</i>
     <i type="int" name="INIMIX">     1</i>
     <i type="int" name="MIXPRE">     1</i>
     <i type="int" name="MREMOVE">     5</i>
    </separator>
   </separator>
   <separator name="electronic dipolcorrection" >
    <i type="logical" name="LDIPOL"> T  </i>
    <i type="logical" name="LMONO"> F  </i>
    <i type="int" name="IDIPOL">     3</i>
    <i name="EPSILON">      1.00000000</i>
    <v name="DIPOL">      0.50000000      0.50000000      0.50000000</v>
    <i name="EFIELD">      0.00000000</i>
   </separator>
  </separator>
  <separator name="grids" >
   <i type="int" name="NGX">    60</i>
   <i type="int" name="NGY">    60</i>
   <i type="int" name="NGZ">   162</i>
   <i type="int" name="NGXF">   120</i>
   <i type="int" name="NGYF">   120</i>
   <i type="int" name="NGZF">   324</i>
   <i type="logical" name="ADDGRID"> F  </i>
  </separator>
  <separator name="ionic" >
   <i type="int" name="NSW">    60</i>
   <i type="int" name="IBRION">     2</i>
   <i type="int" name="MDALGO">     0</i>
   <i type="int" name="ISIF">     2</i>
   <i name="PSTRESS">      0.00000000</i>
   <i name="EDIFFG">     -0.02000000</i>
   <i type="int" name="NFREE">     1</i>
   <i name="POTIM">      0.10000000</i>
   <i name="SMASS">     -3.00000000</i>
   <i name="SCALEE">      1.00000000</i>
  </separator>
  <separator name="ionic md" >
   <i name="TEBEG">      0.00010000</i>
   <i name="TEEND">      0.00010000</i>
   <i type="int" name="NBLOCK">     1</i>
   <i type="int" name="KBLOCK">    60</i>
   <i type="int" name="NPACO">   256</i>
   <i name="APACO">     16.00000000</i>
  </separator>
  <separator name="symmetry" >
   <i type="int" name="ISYM">     2</i>
   <i name="SYMPREC">      0.00001000</i>
  </separator>
  <separator name="dos" >
   <i type="int" name="LORBIT">     0</i>
   <v name="RWIGS">     -1.00000000     -1.00000000     -1.00000000</v>
   <i type="int" name="NEDOS">   301</i>
   <i name="EMIN">     10.00000000</i>
   <i name="EMAX">    -10.00000000</i>
   <i name="EFERMI">      0.00000000</i>
  </separator>
  <separator name="writing" >
   <i type="int" name="NWRITE">     2</i>
   <i type="logical" name="LWAVE"> F  </i>
   <i type="logical" name="LDOWNSAMPLE"> F  </i>
   <i type="logical" name="LCHARG"> T  </i>
   <i type="logical" name="LPARD"> F  </i>
   <i type="logical" name="LVTOT"> F  </i>
   <i type="logical" name="LVHAR"> F  </i>
   <i type="logical" name="LELF"> F  </i>
   <i type="logical" name="LOPTICS"> F  </i>
   <v name="STM">      0.00000000      0.00000000      0.00000000      0.00000000      0.00000000      0.00000000      0.00000000</v>
  </separator>
  <separator name="performance" >
   <i type="int" name="NPAR">     5</i>
   <i type="int" name="NSIM">     4</i>
   <i type="int" name="NBLK">    -1</i>
   <i type="logical" name="LPLANE"> T  </i>
   <i type="logical" name="LSCALAPACK"> T  </i>
   <i type="logical" name="LSCAAWARE"> F  </i>
   <i type="logical" name="LSCALU"> F  </i>
   <i type="logical" name="LASYNC"> F  </i>
   <i type="logical" name="LORBITALREAL"> F  </i>
  </separator>
  <separator name="miscellaneous" >
   <i type="int" name="IDIOT">     3</i>
   <i type="int" name="ISPECIAL">     0</i>
   <i type="logical" name="LMUSIC"> F  </i>
   <v name="POMASS">    107.86800000    106.42000000     14.00100000</v>
   <v name="DARWINR">      0.00000000      0.00000000      0.00000000</v>
   <v name="DARWINV">      1.00000000      1.00000000      1.00000000</v>
   <i type="logical" name="LCORR"> T  </i>
  </separator>
  <i type="logical" name="GGA_COMPAT"> T  </i>
  <i type="logical" name="LBERRY"> F  </i>
  <i type="int" name="ICORELEVEL">     0</i>
  <i type="logical" name="LDAU"> F  </i>
  <i type="int" name="I_CONSTRAINED_M">     0</i>
  <separator name="electronic exchange-correlation" >
   <i type="string" name="GGA">RP</i>
   <i type="int" name="VOSKOWN">     0</i>
   <i type="logical" name="LHFCALC"> F  </i>
   <i type="string" name="PRECFOCK"></i>
   <i type="logical" name="LSYMGRAD"> F  </i>
   <i type="logical" name="LHFONE"> F  </i>
   <i type="logical" name="LRHFCALC"> F  </i>
   <i type="logical" name="LTHOMAS"> F  </i>
   <i type="logical" name="LMODELHF"> F  </i>
   <i name="ENCUT4O">     -1.00000000</i>
   <i type="int" name="EXXOEP">     0</i>
   <i type="int" name="FOURORBIT">     0</i>
   <i name="AEXX">      0.00000000</i>
   <i name="HFALPHA">      0.00000000</i>
   <i name="MCALPHA">      0.00000000</i>
   <i name="ALDAX">      1.00000000</i>
   <i name="AGGAX">      1.00000000</i>
   <i name="ALDAC">      1.00000000</i>
   <i name="AGGAC">      1.00000000</i>
   <i type="int" name="NKREDX">     1</i>
   <i type="int" name="NKREDY">     1</i>
   <i type="int" name="NKREDZ">     1</i>
   <i type="logical" name="SHIFTRED"> F  </i>
   <i type="logical" name="ODDONLY"> F  </i>
   <i type="logical" name="EVENONLY"> F  </i>
   <i type="int" name="LMAXFOCK">     0</i>
   <i type="int" name="NMAXFOCKAE">     0</i>
   <i type="logical" name="LFOCKAEDFT"> F  </i>
   <i name="HFSCREEN">      0.00000000</i>
   <i name="HFSCREENC">      0.00000000</i>
   <i type="int" name="NBANDSGWLOW">     0</i>
  </separator>
  <separator name="vdW DFT" >
   <i type="logical" name="LUSE_VDW"> F  </i>
   <i name="Zab_VDW">     -0.84910000</i>
   <i name="PARAM1">      0.12340000</i>
   <i name="PARAM2">      1.00000000</i>
   <i name="PARAM3">      0.00000000</i>
  </separator>
  <separator name="model GW" >
   <i type="int" name="MODEL_GW">     0</i>
   <i name="MODEL_EPS0">     22.27381053</i>
   <i name="MODEL_ALPHA">      1.00000000</i>
  </separator>
  <separator name="linear response parameters" >
   <i type="logical" name="LEPSILON"> F  </i>
   <i type="logical" name="LRPA"> F  </i>
   <i type="logical" name="LNABLA"> F  </i>
   <i type="logical" name="LVEL"> F  </i>
   <i type="int" name="KINTER">     0</i>
   <i name="CSHIFT">      0.10000000</i>
   <i name="OMEGAMAX">     -1.00000000</i>
   <i name="DEG_THRESHOLD">      0.00200000</i>
   <i name="RTIME">     -0.10000000</i>
   <i name="WPLASMAI">      0.00000000</i>
   <v name="DFIELD">      0.00000000      0.00000000      0.00000000</v>
   <v name="WPLASMA">      0.00000000      0.00000000      0.00000000      0.00000000      0.00000000      0.00000000      0.00000000      0.00000000      0.00000000</v>
  </separator>
  <separator name="orbital magnetization" >
   <i type="logical" name="NUCIND"> F  </i>
   <v name="MAGPOS">      0.00000000      0.00000000      0.00000000</v>
   <i type="logical" name="LNICSALL"> T  </i>
   <i type="logical" name="ORBITALMAG"> F  </i>
   <i type="logical" name="LMAGBLOCH"> F  </i>
   <i type="logical" name="LCHIMAG"> F  </i>
   <i type="logical" name="LGAUGE"> T  </i>
   <i type="int" name="MAGATOM">     0</i>
   <v name="MAGDIPOL">      0.00000000      0.00000000      0.00000000</v>
   <v name="AVECCONST">      0.00000000      0.00000000      0.00000000</v>
  </separator>
  <separator name="response functions" >
   <i type="logical" name="LADDER"> F  </i>
   <i type="logical" name="LRPAFORCE"> F  </i>
   <i type="logical" name="LFXC"> F  </i>
   <i type="logical" name="LHARTREE"> T  </i>
   <i type="int" name="IBSE">     0</i>
   <v type="int" name="KPOINT">    -1     0     0     0</v>
   <i type="logical" name="LTCTE"> F  </i>
   <i type="logical" name="LTETE"> F  </i>
   <i type="logical" name="LTRIPLET"> F  </i>
   <i type="logical" name="LFXCEPS"> F  </i>
   <i type="logical" name="LFXHEG"> F  </i>
   <i type="int" name="NATURALO">     2</i>
   <i type="logical" name="L2ORDER"> F  </i>
   <i type="logical" name="LMP2LT"> F  </i>
   <i type="logical" name="LUSEW"> F  </i>
   <i name="ENCUTGW">     -2.00000000</i>
   <i name="ENCUTGWSOFT">     -2.00000000</i>
   <i name="ENCUTLF">     -1.00000000</i>
   <i type="int" name="LMAXMP2">    -1</i>
   <i name="SCISSOR">      0.00000000</i>
   <i type="int" name="NOMEGA">     0</i>
   <i type="int" name="NOMEGAR">     0</i>
   <i type="int" name="NBANDSGW">    -1</i>
   <i type="int" name="NBANDSO">    -1</i>
   <i type="int" name="NBANDSV">    -1</i>
   <i type="int" name="NELM">     1</i>
   <i type="int" name="NELMHF">     1</i>
   <i type="int" name="DIM">     3</i>
   <i type="int" name="ANTIRES">     0</i>
   <i name="OMEGAMAX">    -30.00000000</i>
   <i name="OMEGAMIN">    -30.00000000</i>
   <i name="OMEGATL">   -200.00000000</i>
   <i type="int" name="OMEGAGRID">   140</i>
   <i name="CSHIFT">     -0.10000000</i>
   <i type="logical" name="SELFENERGY"> F  </i>
   <i type="logical" name="LSPECTRAL"> F  </i>
   <i type="logical" name="LSPECTRALGW"> F  </i>
   <i type="logical" name="LSINGLES"> F  </i>
   <i type="logical" name="LFERMIGW"> F  </i>
   <i type="logical" name="ODDONLYGW"> F  </i>
   <i type="logical" name="EVENONLYGW"> F  </i>
   <i type="int" name="NKREDLFX">     1</i>
   <i type="int" name="NKREDLFY">     1</i>
   <i type="int" name="NKREDLFZ">     1</i>
   <i type="int" name="MAXMEM">  2800</i>
   <i type="int" name="TELESCOPE">     0</i>
   <i type="int" name="TAUPAR">     1</i>
   <i type="int" name="OMEGAPAR">    -1</i>
   <i name="LAMBDA">      1.00000000</i>
  </separator>
  <separator name="External order field" >
   <i name="OFIELD_KAPPA">      0.00000000</i>
   <v name="OFIELD_K">      0.00000000      0.00000000      0.00000000</v>
   <i name="OFIELD_Q6_NEAR">      0.00000000</i>
   <i name="OFIELD_Q6_FAR">      0.00000000</i>
   <i name="OFIELD_A">      0.00000000</i>
  </separator>
 </parameters>
 <atominfo>
  <atoms>      46 </atoms>
  <types>       3 </types>
  <array name="atoms" >
   <dimension dim="1">ion</dimension>
   <field type="string">element</field>
   <field type="int">atomtype</field>
   <set>
    <rc><c>Ag</c><c>   1</c></rc>
    <rc><c>Ag</c><c>   1</c></rc>
    <rc><c>Ag</c><c>   1</c></rc>
    <rc><c>Ag</c><c>   1</c></rc>
    <rc><c>Ag</c><c>   1</c></rc>
    <rc><c>Ag</c><c>   1</c></rc>
    <rc><c>Ag</c><c>   1</c></rc>
    <rc><c>Ag</c><c>   1</c></rc>
    <rc><c>Ag</c><c>   1</c></rc>
    <rc><c>Ag</c><c>   1</c></rc>
    <rc><c>Ag</c><c>   1</c></rc>
    <rc><c>Ag</c><c>   1</c></rc>
    <rc><c>Ag</c><c>   1</c></rc>
    <rc><c>Ag</c><c>   1</c></rc>
    <rc><c>Ag</c><c>   1</c></rc>
    <rc><c>Ag</c><c>   1</c></rc>
    <rc><c>Ag</c><c>   1</c></rc>
    <rc><c>Ag</c><c>   1</c></rc>
    <rc><c>Ag</c><c>   1</c></rc>
    <rc><c>Ag</c><c>   1</c></rc>
    <rc><c>Ag</c><c>   1</c></rc>
    <rc><c>Ag</c><c>   1</c></rc>
    <rc><c>Ag</c><c>   1</c></rc>
    <rc><c>Ag</c><c>   1</c></rc>
    <rc><c>Ag</c><c>   1</c></rc>
    <rc><c>Ag</c><c>   1</c></rc>
    <rc><c>Ag</c><c>   1</c></rc>
    <rc><c>Ag</c><c>   1</c></rc>
    <rc><c>Ag</c><c>   1</c></rc>
    <rc><c>Ag</c><c>   1</c></rc>
    <rc><c>Ag</c><c>   1</c></rc>
    <rc><c>Ag</c><c>   1</c></rc>
    <rc><c>Ag</c><c>   1</c></rc>
    <rc><c>Ag</c><c>   1</c></rc>
    <rc><c>Ag</c><c>   1</c></rc>
    <rc><c>Ag</c><c>   1</c></rc>
    <rc><c>Ag</c><c>   1</c></rc>
    <rc><c>Ag</c><c>   1</c></rc>
    <rc><c>Ag</c><c>   1</c></rc>
    <rc><c>Ag</c><c>   1</c></rc>
    <rc><c>Ag</c><c>   1</c></rc>
    <rc><c>Ag</c><c>   1</c></rc>
    <rc><c>Ag</c><c>   1</c></rc>
    <rc><c>Ag</c><c>   1</c></rc>
    <rc><c>Pd</c><c>   2</c></rc>
    <rc><c>N </c><c>   3</c></rc>
   </set>
  </array>
  <array name="atomtypes" >
   <dimension dim="1">type</dimension>
   <field type="int">atomspertype</field>
   <field type="string">element</field>
   <field>mass</field>
   <field>valence</field>
   <field type="string">pseudopotential</field>
   <set>
    <rc><c>  44</c><c>Ag</c><c>    107.86800000</c><c>     11.00000000</c><c>  PAW_PBE Ag 02Apr2005                  </c></rc>
    <rc><c>   1</c><c>Pd</c><c>    106.42000000</c><c>     10.00000000</c><c>  PAW_PBE Pd 04Jan2005                  </c></rc>
    <rc><c>   1</c><c>N </c><c>     14.00100000</c><c>      5.00000000</c><c>  PAW_PBE N 08Apr2002                   </c></rc>
   </set>
  </array>
 </atominfo>
 <structure name="initialpos" >
  <crystal>
   <varray name="basis" >
    <v>       8.93075865       0.00000000       0.00000000 </v>
    <v>       4.46537932       7.73426386       0.00000000 </v>
    <v>       0.00000000       0.00000000      24.72257853 </v>
   </varray>
   <i name="volume">   1707.65880700 </i>
   <varray name="rec_basis" >
    <v>       0.11197257      -0.06464739       0.00000000 </v>
    <v>       0.00000000       0.12929479       0.00000000 </v>
    <v>       0.00000000       0.00000000       0.04044886 </v>
   </varray>
  </crystal>
  <varray name="positions" >
   <v>       0.88888889       0.22222222       0.30336641 </v>
   <v>       0.22222222       0.22222222       0.30336641 </v>
   <v>       0.55555556       0.22222222       0.30336641 </v>
   <v>       0.88888889       0.55555556       0.30336641 </v>
   <v>       0.22222222       0.55555556       0.30336641 </v>
   <v>       0.55555556       0.55555556       0.30336641 </v>
   <v>       0.88888889       0.88888889       0.30336641 </v>
   <v>       0.22222222       0.88888889       0.30336641 </v>
   <v>       0.55555556       0.88888889       0.30336641 </v>
   <v>       0.00000000       0.00000000       0.40168321 </v>
   <v>       0.33333333       0.00000000       0.40168321 </v>
   <v>       0.66666667       0.00000000       0.40168321 </v>
   <v>       0.00000000       0.33333333       0.40168321 </v>
   <v>       0.33333333       0.33333333       0.40168321 </v>
   <v>       0.66666667       0.33333333       0.40168321 </v>
   <v>       0.00000000       0.66666667       0.40168321 </v>
   <v>       0.33333333       0.66666667       0.40168321 </v>
   <v>       0.66666667       0.66666667       0.40168321 </v>
   <v>       0.11075049       0.11075049       0.50056804 </v>
   <v>       0.44456917       0.11086166       0.49981223 </v>
   <v>       0.77849901       0.11075049       0.50056804 </v>
   <v>       0.11086166       0.44456917       0.49981223 </v>
   <v>       0.44456917       0.44456917       0.49981223 </v>
   <v>       0.77790438       0.44419123       0.50038475 </v>
   <v>       0.11075049       0.77849901       0.50056804 </v>
   <v>       0.44419123       0.77790438       0.50038475 </v>
   <v>       0.77790438       0.77790438       0.50038475 </v>
   <v>       0.88860671       0.22278658       0.59923470 </v>
   <v>       0.22298931       0.22298931       0.59793300 </v>
   <v>       0.55402138       0.22298931       0.59793300 </v>
   <v>       0.88905604       0.55547198       0.59850650 </v>
   <v>       0.22298931       0.55402138       0.59793300 </v>
   <v>       0.55547198       0.55547198       0.59850650 </v>
   <v>       0.88860671       0.88860671       0.59923470 </v>
   <v>       0.22278658       0.88860671       0.59923470 </v>
   <v>       0.55547198       0.88905604       0.59850650 </v>
   <v>       0.00000000       0.00000000       0.69735864 </v>
   <v>       0.33303373       0.00108233       0.69746823 </v>
   <v>       0.66588394       0.00108233       0.69746823 </v>
   <v>       0.00108233       0.33303373       0.69746823 </v>
   <v>       0.66588394       0.33303373       0.69746823 </v>
   <v>       0.00108233       0.66588394       0.69746823 </v>
   <v>       0.33303373       0.66588394       0.69746823 </v>
   <v>       0.66666667       0.66666667       0.69641327 </v>
   <v>       0.33333333       0.33333333       0.69458653 </v>
   <v>       0.33333333       0.33333333       0.76634937 </v>
  </varray>
  <varray name="selective"  type="logical" >
   <v type="logical" >  F  F  F </v>
   <v type="logical" >  F  F  F </v>
   <v type="logical" >  F  F  F </v>
   <v type="logical" >  F  F  F </v>
   <v type="logical" >  F  F  F </v>
   <v type="logical" >  F  F  F </v>
   <v type="logical" >  F  F  F </v>
   <v type="logical" >  F  F  F </v>
   <v type="logical" >  F  F  F </v>
   <v type="logical" >  F  F  F </v>
   <v type="logical" >  F  F  F </v>
   <v type="logical" >  F  F  F </v>
   <v type="logical" >  F  F  F </v>
   <v type="logical" >  F  F  F </v>
   <v type="logical" >  F  F  F </v>
   <v type="logical" >  F  F  F </v>
   <v type="logical" >  F  F  F </v>
   <v type="logical" >  F  F  F </v>
   <v type="logical" >  T  T  T </v>
   <v type="logical" >  T  T  T </v>
   <v type="logical" >  T  T  T </v>
   <v type="logical" >  T  T  T </v>
   <v type="logical" >  T  T  T </v>
   <v type="logical" >  T  T  T </v>
   <v type="logical" >  T  T  T </v>
   <v type="logical" >  T  T  T </v>
   <v type="logical" >  T  T  T </v>
   <v type="logical" >  T  T  T </v>
   <v type="logical" >  T  T  T </v>
   <v type="logical" >  T  T  T </v>
   <v type="logical" >  T  T  T </v>
   <v type="logical" >  T  T  T </v>
   <v type="logical" >  T  T  T </v>
   <v type="logical" >  T  T  T </v>
   <v type="logical" >  T  T  T </v>
   <v type="logical" >  T  T  T </v>
   <v type="logical" >  T  T  T </v>
   <v type="logical" >  T  T  T </v>
   <v type="logical" >  T  T  T </v>
   <v type="logical" >  T  T  T </v>
   <v type="logical" >  T  T  T </v>
   <v type="logical" >  T  T  T </v>
   <v type="logical" >  T  T  T </v>
   <v type="logical" >  T  T  T </v>
   <v type="logical" >  T  T  T </v>
   <v type="logical" >  T  T  T </v>
  </varray>
  <nose>
   <v>      -3.00000000       0.00000000       0.00010000       0.00010000 </v>
  </nose>
 </structure>
 <calculation>
  <scstep>
   <time name="dav">    4.79    4.80</time>
   <time name="total">    5.30    5.32</time>
   <dipole>
    <v name="dipole">      0.00000000       0.00000000       0.47492420 </v>
    <i name="Tr[quadrupol]">  -6472.94198890 </i>
    <i name="Echarged">      0.00000000 </i>
    <i name="Edipol_quadrupol">      0.00000000 </i>
    <i name="Eion">      0.00000000 </i>
   </dipole>
   <energy>
    <i name="alphaZ">   1018.00633291 </i>
    <i name="ewald"> 133529.80051456 </i>
    <i name="hartreedc">-181526.49657434 </i>
    <i name="XCdc">   -526.08678450 </i>
    <i name="pawpsdc">  49369.97515157 </i>
    <i name="pawaedc"> -47324.76811576 </i>
    <i name="eentropy">      0.01203946 </i>
    <i name="bandstr">   1558.23081192 </i>
    <i name="atom">  46688.47155493 </i>
    <i name="e_fr_energy">   2787.14493075 </i>
    <i name="e_wo_entrp">   2787.13289129 </i>
    <i name="e_0_energy">   2787.14091760 </i>
   </energy>
  </scstep>
  <scstep>
   <time name="dav">    5.31    5.33</time>
   <time name="total">    5.31    5.33</time>
   <dipole>
    <v name="dipole">      0.00000000       0.00000000       0.47492420 </v>
    <i name="Tr[quadrupol]">  -6472.94198890 </i>
    <i name="Echarged">      0.00000000 </i>
    <i name="Edipol_quadrupol">      0.00000000 </i>
    <i name="Eion">      0.00000000 </i>
   </dipole>
   <energy>
    <i name="e_fr_energy">     -0.97694780 </i>
    <i name="e_wo_entrp">     -0.97830084 </i>
    <i name="e_0_energy">     -0.97739882 </i>
   </energy>
  </scstep>
  <scstep>
   <time name="dav">    5.27    5.28</time>
   <time name="total">    5.27    5.29</time>
   <dipole>
    <v name="dipole">      0.00000000       0.00000000       0.47492420 </v>
    <i name="Tr[quadrupol]">  -6472.94198890 </i>
    <i name="Echarged">      0.00000000 </i>
    <i name="Edipol_quadrupol">      0.00000000 </i>
    <i name="Eion">      0.00000000 </i>
   </dipole>
   <energy>
    <i name="e_fr_energy">    -94.13873247 </i>
    <i name="e_wo_entrp">    -94.12138289 </i>
    <i name="e_0_energy">    -94.13294927 </i>
   </energy>
  </scstep>
  <scstep>
   <time name="dav">    5.06    5.09</time>
   <time name="total">    5.06    5.09</time>
   <dipole>
    <v name="dipole">      0.00000000       0.00000000       0.47492420 </v>
    <i name="Tr[quadrupol]">  -6472.94198890 </i>
    <i name="Echarged">      0.00000000 </i>
    <i name="Edipol_quadrupol">      0.00000000 </i>
    <i name="Eion">      0.00000000 </i>
   </dipole>
   <energy>
    <i name="e_fr_energy">    -95.52689048 </i>
    <i name="e_wo_entrp">    -95.51388322 </i>
    <i name="e_0_energy">    -95.52255472 </i>
   </energy>
  </scstep>
  <scstep>
   <time name="dav">    5.32    5.33</time>
   <time name="total">    5.63    5.65</time>
   <dipole>
    <v name="dipole">      0.00000000       0.00000000       0.47492420 </v>
    <i name="Tr[quadrupol]">  -6472.94198890 </i>
    <i name="Echarged">      0.00000000 </i>
    <i name="Edipol_quadrupol">      0.00000000 </i>
    <i name="Eion">      0.00000000 </i>
   </dipole>
   <energy>
    <i name="e_fr_energy">    -95.56917327 </i>
    <i name="e_wo_entrp">    -95.55623096 </i>
    <i name="e_0_energy">    -95.56485917 </i>
   </energy>
  </scstep>
  <scstep>
   <time name="diag">    0.84    0.84</time>
   <time name="diis">    2.52    2.52</time>
   <time name="orth">    0.16    0.16</time>
   <time name="total">    4.34    4.35</time>
   <dipole>
    <v name="dipole">      0.00000000       0.00000000      -0.70867885 </v>
    <i name="Tr[quadrupol]">  -6473.72277842 </i>
    <i name="Echarged">      0.00000000 </i>
    <i name="Edipol_quadrupol">      0.00000000 </i>
    <i name="Eion">      0.00000000 </i>
   </dipole>
   <energy>
    <i name="e_fr_energy">    -84.66659640 </i>
    <i name="e_wo_entrp">    -84.65264703 </i>
    <i name="e_0_energy">    -84.66194661 </i>
   </energy>
  </scstep>
  <scstep>
   <time name="diag">    0.83    0.83</time>
   <time name="diis">    2.58    2.59</time>
   <time name="orth">    0.17    0.17</time>
   <time name="total">    4.45    4.47</time>
   <dipole>
    <v name="dipole">      0.00000000       0.00000000       2.36740577 </v>
    <i name="Tr[quadrupol]">  -6471.90375276 </i>
    <i name="Echarged">      0.00000000 </i>
    <i name="Edipol_quadrupol">      0.00000000 </i>
    <i name="Eion">      0.00000000 </i>
   </dipole>
   <energy>
    <i name="e_fr_energy">   -111.17454878 </i>
    <i name="e_wo_entrp">   -111.15404244 </i>
    <i name="e_0_energy">   -111.16771333 </i>
   </energy>
  </scstep>
  <scstep>
   <time name="diag">    0.87    0.87</time>
   <time name="diis">    2.57    2.58</time>
   <time name="orth">    0.16    0.16</time>
   <time name="total">    4.45    4.46</time>
   <dipole>
    <v name="dipole">      0.00000000       0.00000000       0.04337734 </v>
    <i name="Tr[quadrupol]">  -6474.32524603 </i>
    <i name="Echarged">      0.00000000 </i>
    <i name="Edipol_quadrupol">      0.00000000 </i>
    <i name="Eion">      0.00000000 </i>
   </dipole>
   <energy>
    <i name="e_fr_energy">    -75.47983382 </i>
    <i name="e_wo_entrp">    -75.48435302 </i>
    <i name="e_0_energy">    -75.48134022 </i>
   </energy>
  </scstep>
  <scstep>
   <time name="diag">    0.83    0.83</time>
   <time name="diis">    2.52    2.52</time>
   <time name="orth">    0.17    0.17</time>
   <time name="total">    4.39    4.41</time>
   <dipole>
    <v name="dipole">      0.00000000       0.00000000       0.28601808 </v>
    <i name="Tr[quadrupol]">  -6476.32939926 </i>
    <i name="Echarged">      0.00000000 </i>
    <i name="Edipol_quadrupol">      0.00000000 </i>
    <i name="Eion">      0.00000000 </i>
   </dipole>
   <energy>
    <i name="e_fr_energy">    -76.61661037 </i>
    <i name="e_wo_entrp">    -76.60138559 </i>
    <i name="e_0_energy">    -76.61153544 </i>
   </energy>
  </scstep>
  <scstep>
   <time name="diag">    0.88    0.88</time>
   <time name="diis">    2.56    2.56</time>
   <time name="orth">    0.16    0.16</time>
   <time name="total">    4.50    4.52</time>
   <dipole>
    <v name="dipole">      0.00000000       0.00000000      -0.01741175 </v>
    <i name="Tr[quadrupol]">  -6475.70503185 </i>
    <i name="Echarged">      0.00000000 </i>
    <i name="Edipol_quadrupol">      0.00000000 </i>
    <i name="Eion">      0.00000000 </i>
   </dipole>
   <energy>
    <i name="e_fr_energy">    -77.28731396 </i>
    <i name="e_wo_entrp">    -77.27732632 </i>
    <i name="e_0_energy">    -77.28398475 </i>
   </energy>
  </scstep>
  <scstep>
   <time name="diag">    0.89    0.89</time>
   <time name="diis">    2.47    2.48</time>
   <time name="orth">    0.16    0.16</time>
   <time name="total">    4.38    4.39</time>
   <dipole>
    <v name="dipole">      0.00000000       0.00000000       0.36041870 </v>
    <i name="Tr[quadrupol]">  -6476.32824485 </i>
    <i name="Echarged">      0.00000000 </i>
    <i name="Edipol_quadrupol">      0.00000000 </i>
    <i name="Eion">      0.00000000 </i>
   </dipole>
   <energy>
    <i name="e_fr_energy">    -79.27776867 </i>
    <i name="e_wo_entrp">    -79.27307008 </i>
    <i name="e_0_energy">    -79.27620247 </i>
   </energy>
  </scstep>
  <scstep>
   <time name="diag">    0.83    0.83</time>
   <time name="diis">    2.51    2.52</time>
   <time name="orth">    0.16    0.16</time>
   <time name="total">    4.33    4.34</time>
   <dipole>
    <v name="dipole">      0.00000000       0.00000000       0.15722392 </v>
    <i name="Tr[quadrupol]">  -6478.31175291 </i>
    <i name="Echarged">      0.00000000 </i>
    <i name="Edipol_quadrupol">      0.00000000 </i>
    <i name="Eion">      0.00000000 </i>
   </dipole>
   <energy>
    <i name="e_fr_energy">    -85.43951528 </i>
    <i name="e_wo_entrp">    -85.43468851 </i>
    <i name="e_0_energy">    -85.43790636 </i>
   </energy>
  </scstep>
  <scstep>
   <time name="diag">    0.83    0.84</time>
   <time name="diis">    2.53    2.53</time>
   <time name="orth">    0.15    0.15</time>
   <time name="total">    4.34    4.36</time>
   <dipole>
    <v name="dipole">      0.00000000       0.00000000       0.34060057 </v>
    <i name="Tr[quadrupol]">  -6480.35034754 </i>
    <i name="Echarged">      0.00000000 </i>
    <i name="Edipol_quadrupol">      0.00000000 </i>
    <i name="Eion">      0.00000000 </i>
   </dipole>
   <energy>
    <i name="e_fr_energy">    -93.49195179 </i>
    <i name="e_wo_entrp">    -93.50231281 </i>
    <i name="e_0_energy">    -93.49540546 </i>
   </energy>
  </scstep>
  <scstep>
   <time name="diag">    0.83    0.84</time>
   <time name="diis">    2.53    2.54</time>
   <time name="orth">    0.16    0.16</time>
   <time name="total">    4.35    4.36</time>
   <dipole>
    <v name="dipole">      0.00000000       0.00000000       0.28608170 </v>
    <i name="Tr[quadrupol]">  -6480.60794407 </i>
    <i name="Echarged">      0.00000000 </i>
    <i name="Edipol_quadrupol">      0.00000000 </i>
    <i name="Eion">      0.00000000 </i>
   </dipole>
   <energy>
    <i name="e_fr_energy">    -95.79063912 </i>
    <i name="e_wo_entrp">    -95.77098701 </i>
    <i name="e_0_energy">    -95.78408842 </i>
   </energy>
  </scstep>
  <scstep>
   <time name="diag">    0.84    0.84</time>
   <time name="diis">    2.51    2.51</time>
   <time name="orth">    0.16    0.16</time>
   <time name="total">    4.32    4.34</time>
   <dipole>
    <v name="dipole">      0.00000000       0.00000000       0.27765501 </v>
    <i name="Tr[quadrupol]">  -6479.94734518 </i>
    <i name="Echarged">      0.00000000 </i>
    <i name="Edipol_quadrupol">      0.00000000 </i>
    <i name="Eion">      0.00000000 </i>
   </dipole>
   <energy>
    <i name="e_fr_energy">    -97.27870156 </i>
    <i name="e_wo_entrp">    -97.26464548 </i>
    <i name="e_0_energy">    -97.27401620 </i>
   </energy>
  </scstep>
  <scstep>
   <time name="diag">    0.83    0.83</time>
   <time name="diis">    2.61    2.62</time>
   <time name="orth">    0.16    0.16</time>
   <time name="total">    4.48    4.50</time>
   <dipole>
    <v name="dipole">      0.00000000       0.00000000       0.26739663 </v>
    <i name="Tr[quadrupol]">  -6479.07722470 </i>
    <i name="Echarged">      0.00000000 </i>
    <i name="Edipol_quadrupol">      0.00000000 </i>
    <i name="Eion">      0.00000000 </i>
   </dipole>
   <energy>
    <i name="e_fr_energy">    -98.69721196 </i>
    <i name="e_wo_entrp">    -98.68833212 </i>
    <i name="e_0_energy">    -98.69425202 </i>
   </energy>
  </scstep>
  <scstep>
   <time name="diag">    0.87    0.87</time>
   <time name="diis">    2.62    2.63</time>
   <time name="orth">    0.16    0.16</time>
   <time name="total">    4.51    4.52</time>
   <dipole>
    <v name="dipole">      0.00000000       0.00000000       0.26806154 </v>
    <i name="Tr[quadrupol]">  -6478.36006796 </i>
    <i name="Echarged">      0.00000000 </i>
    <i name="Edipol_quadrupol">      0.00000000 </i>
    <i name="Eion">      0.00000000 </i>
   </dipole>
   <energy>
    <i name="e_fr_energy">    -99.61815007 </i>
    <i name="e_wo_entrp">    -99.61569165 </i>
    <i name="e_0_energy">    -99.61733059 </i>
   </energy>
  </scstep>
  <scstep>
   <time name="diag">    0.84    0.84</time>
   <time name="diis">    2.50    2.51</time>
   <time name="orth">    0.16    0.16</time>
   <time name="total">    4.34    4.35</time>
   <dipole>
    <v name="dipole">      0.00000000       0.00000000       0.22478979 </v>
    <i name="Tr[quadrupol]">  -6477.15731139 </i>
    <i name="Echarged">      0.00000000 </i>
    <i name="Edipol_quadrupol">      0.00000000 </i>
    <i name="Eion">      0.00000000 </i>
   </dipole>
   <energy>
    <i name="e_fr_energy">   -100.28254307 </i>
    <i name="e_wo_entrp">   -100.28347717 </i>
    <i name="e_0_energy">   -100.28285444 </i>
   </energy>
  </scstep>
  <scstep>
   <time name="diag">    0.88    0.88</time>
   <time name="diis">    2.57    2.58</time>
   <time name="orth">    0.16    0.16</time>
   <time name="total">    4.53    4.54</time>
   <dipole>
    <v name="dipole">      0.00000000       0.00000000       0.23656777 </v>
    <i name="Tr[quadrupol]">  -6476.93364742 </i>
    <i name="Echarged">      0.00000000 </i>
    <i name="Edipol_quadrupol">      0.00000000 </i>
    <i name="Eion">      0.00000000 </i>
   </dipole>
   <energy>
    <i name="e_fr_energy">   -100.63467472 </i>
    <i name="e_wo_entrp">   -100.63710050 </i>
    <i name="e_0_energy">   -100.63548331 </i>
   </energy>
  </scstep>
  <scstep>
   <time name="diag">    0.90    0.90</time>
   <time name="diis">    2.49    2.50</time>
   <time name="orth">    0.16    0.16</time>
   <time name="total">    4.39    4.41</time>
   <dipole>
    <v name="dipole">      0.00000000       0.00000000       0.22894931 </v>
    <i name="Tr[quadrupol]">  -6476.19488513 </i>
    <i name="Echarged">      0.00000000 </i>
    <i name="Edipol_quadrupol">      0.00000000 </i>
    <i name="Eion">      0.00000000 </i>
   </dipole>
   <energy>
    <i name="e_fr_energy">   -100.79603087 </i>
    <i name="e_wo_entrp">   -100.79578243 </i>
    <i name="e_0_energy">   -100.79594806 </i>
   </energy>
  </scstep>
  <scstep>
   <time name="diag">    0.84    0.84</time>
   <time name="diis">    2.48    2.49</time>
   <time name="orth">    0.15    0.15</time>
   <time name="total">    4.30    4.31</time>
   <dipole>
    <v name="dipole">      0.00000000       0.00000000       0.22940257 </v>
    <i name="Tr[quadrupol]">  -6475.41304215 </i>
    <i name="Echarged">      0.00000000 </i>
    <i name="Edipol_quadrupol">      0.00000000 </i>
    <i name="Eion">      0.00000000 </i>
   </dipole>
   <energy>
    <i name="e_fr_energy">   -100.96381497 </i>
    <i name="e_wo_entrp">   -100.95899185 </i>
    <i name="e_0_energy">   -100.96220727 </i>
   </energy>
  </scstep>
  <scstep>
   <time name="diag">    0.84    0.84</time>
   <time name="diis">    2.50    2.51</time>
   <time name="orth">    0.16    0.16</time>
   <time name="total">    4.32    4.33</time>
   <dipole>
    <v name="dipole">      0.00000000       0.00000000       0.22590301 </v>
    <i name="Tr[quadrupol]">  -6475.01368351 </i>
    <i name="Echarged">      0.00000000 </i>
    <i name="Edipol_quadrupol">      0.00000000 </i>
    <i name="Eion">      0.00000000 </i>
   </dipole>
   <energy>
    <i name="e_fr_energy">   -101.07309822 </i>
    <i name="e_wo_entrp">   -101.06702145 </i>
    <i name="e_0_energy">   -101.07107263 </i>
   </energy>
  </scstep>
  <scstep>
   <time name="diag">    0.84    0.84</time>
   <time name="diis">    2.49    2.50</time>
   <time name="orth">    0.16    0.16</time>
   <time name="total">    4.31    4.32</time>
   <dipole>
    <v name="dipole">      0.00000000       0.00000000       0.22166181 </v>
    <i name="Tr[quadrupol]">  -6474.37423439 </i>
    <i name="Echarged">      0.00000000 </i>
    <i name="Edipol_quadrupol">      0.00000000 </i>
    <i name="Eion">      0.00000000 </i>
   </dipole>
   <energy>
    <i name="e_fr_energy">   -101.22781514 </i>
    <i name="e_wo_entrp">   -101.21868164 </i>
    <i name="e_0_energy">   -101.22477064 </i>
   </energy>
  </scstep>
  <scstep>
   <time name="diag">    0.84    0.84</time>
   <time name="diis">    2.49    2.49</time>
   <time name="orth">    0.16    0.16</time>
   <time name="total">    4.31    4.32</time>
   <dipole>
    <v name="dipole">      0.00000000       0.00000000       0.22212045 </v>
    <i name="Tr[quadrupol]">  -6474.00974579 </i>
    <i name="Echarged">      0.00000000 </i>
    <i name="Edipol_quadrupol">      0.00000000 </i>
    <i name="Eion">      0.00000000 </i>
   </dipole>
   <energy>
    <i name="e_fr_energy">   -101.41461239 </i>
    <i name="e_wo_entrp">   -101.40386996 </i>
    <i name="e_0_energy">   -101.41103158 </i>
   </energy>
  </scstep>
  <scstep>
   <time name="diag">    0.84    0.84</time>
   <time name="diis">    2.54    2.55</time>
   <time name="orth">    0.16    0.16</time>
   <time name="total">    4.39    4.40</time>
   <dipole>
    <v name="dipole">      0.00000000       0.00000000       0.21833398 </v>
    <i name="Tr[quadrupol]">  -6473.66097075 </i>
    <i name="Echarged">      0.00000000 </i>
    <i name="Edipol_quadrupol">      0.00000000 </i>
    <i name="Eion">      0.00000000 </i>
   </dipole>
   <energy>
    <i name="e_fr_energy">   -101.60888060 </i>
    <i name="e_wo_entrp">   -101.59716034 </i>
    <i name="e_0_energy">   -101.60497385 </i>
   </energy>
  </scstep>
  <scstep>
   <time name="diag">    0.88    0.89</time>
   <time name="diis">    2.62    2.62</time>
   <time name="orth">    0.16    0.16</time>
   <time name="total">    4.56    4.57</time>
   <dipole>
    <v name="dipole">      0.00000000       0.00000000       0.21525520 </v>
    <i name="Tr[quadrupol]">  -6473.41537719 </i>
    <i name="Echarged">      0.00000000 </i>
    <i name="Edipol_quadrupol">      0.00000000 </i>
    <i name="Eion">      0.00000000 </i>
   </dipole>
   <energy>
    <i name="e_fr_energy">   -101.69741517 </i>
    <i name="e_wo_entrp">   -101.68513887 </i>
    <i name="e_0_energy">   -101.69332307 </i>
   </energy>
  </scstep>
  <scstep>
   <time name="diag">    0.84    0.84</time>
   <time name="diis">    2.49    2.50</time>
   <time name="orth">    0.16    0.16</time>
   <time name="total">    4.31    4.33</time>
   <dipole>
    <v name="dipole">      0.00000000       0.00000000       0.21151174 </v>
    <i name="Tr[quadrupol]">  -6473.27288478 </i>
    <i name="Echarged">      0.00000000 </i>
    <i name="Edipol_quadrupol">      0.00000000 </i>
    <i name="Eion">      0.00000000 </i>
   </dipole>
   <energy>
    <i name="e_fr_energy">   -101.70977177 </i>
    <i name="e_wo_entrp">   -101.69728841 </i>
    <i name="e_0_energy">   -101.70561065 </i>
   </energy>
  </scstep>
  <scstep>
   <time name="diag">    0.88    0.88</time>
   <time name="diis">    2.58    2.58</time>
   <time name="orth">    0.16    0.16</time>
   <time name="total">    4.45    4.46</time>
   <dipole>
    <v name="dipole">      0.00000000       0.00000000       0.20864346 </v>
    <i name="Tr[quadrupol]">  -6473.21995982 </i>
    <i name="Echarged">      0.00000000 </i>
    <i name="Edipol_quadrupol">      0.00000000 </i>
    <i name="Eion">      0.00000000 </i>
   </dipole>
   <energy>
    <i name="e_fr_energy">   -101.71475210 </i>
    <i name="e_wo_entrp">   -101.70240743 </i>
    <i name="e_0_energy">   -101.71063721 </i>
   </energy>
  </scstep>
  <scstep>
   <time name="diag">    0.89    0.89</time>
   <time name="diis">    2.47    2.48</time>
   <time name="orth">    0.16    0.16</time>
   <time name="total">    4.35    4.37</time>
   <dipole>
    <v name="dipole">      0.00000000       0.00000000       0.20630325 </v>
    <i name="Tr[quadrupol]">  -6473.16221749 </i>
    <i name="Echarged">      0.00000000 </i>
    <i name="Edipol_quadrupol">      0.00000000 </i>
    <i name="Eion">      0.00000000 </i>
   </dipole>
   <energy>
    <i name="e_fr_energy">   -101.71542167 </i>
    <i name="e_wo_entrp">   -101.70305240 </i>
    <i name="e_0_energy">   -101.71129858 </i>
   </energy>
  </scstep>
  <scstep>
   <time name="diag">    0.83    0.84</time>
   <time name="diis">    2.28    2.28</time>
   <time name="orth">    0.16    0.16</time>
   <time name="total">    4.09    4.11</time>
   <dipole>
    <v name="dipole">      0.00000000       0.00000000       0.20438740 </v>
    <i name="Tr[quadrupol]">  -6473.12599507 </i>
    <i name="Echarged">      0.00000000 </i>
    <i name="Edipol_quadrupol">      0.00000000 </i>
    <i name="Eion">      0.00000000 </i>
   </dipole>
   <energy>
    <i name="e_fr_energy">   -101.71555342 </i>
    <i name="e_wo_entrp">   -101.70317667 </i>
    <i name="e_0_energy">   -101.71142784 </i>
   </energy>
  </scstep>
  <scstep>
   <time name="diag">    0.84    0.84</time>
   <time name="diis">    2.25    2.26</time>
   <time name="orth">    0.16    0.16</time>
   <time name="total">    4.07    4.08</time>
   <dipole>
    <v name="dipole">      0.00000000       0.00000000       0.20255024 </v>
    <i name="Tr[quadrupol]">  -6473.09886616 </i>
    <i name="Echarged">      0.00000000 </i>
    <i name="Edipol_quadrupol">      0.00000000 </i>
    <i name="Eion">      0.00000000 </i>
   </dipole>
   <energy>
    <i name="e_fr_energy">   -101.71561389 </i>
    <i name="e_wo_entrp">   -101.70326398 </i>
    <i name="e_0_energy">   -101.71149725 </i>
   </energy>
  </scstep>
  <scstep>
   <time name="diag">    0.84    0.84</time>
   <time name="diis">    2.21    2.21</time>
   <time name="orth">    0.16    0.16</time>
   <time name="total">    4.03    4.04</time>
   <dipole>
    <v name="dipole">      0.00000000       0.00000000       0.20140952 </v>
    <i name="Tr[quadrupol]">  -6473.07772238 </i>
    <i name="Echarged">      0.00000000 </i>
    <i name="Edipol_quadrupol">      0.00000000 </i>
    <i name="Eion">      0.00000000 </i>
   </dipole>
   <energy>
    <i name="e_fr_energy">   -101.71567885 </i>
    <i name="e_wo_entrp">   -101.70328296 </i>
    <i name="e_0_energy">   -101.71154689 </i>
   </energy>
  </scstep>
  <scstep>
   <time name="diag">    0.84    0.84</time>
   <time name="diis">    2.05    2.05</time>
   <time name="orth">    0.16    0.16</time>
   <time name="total">    3.86    3.88</time>
   <dipole>
    <v name="dipole">      0.00000000       0.00000000       0.20069231 </v>
    <i name="Tr[quadrupol]">  -6473.06915859 </i>
    <i name="Echarged">      0.00000000 </i>
    <i name="Edipol_quadrupol">      0.00000000 </i>
    <i name="Eion">      0.00000000 </i>
   </dipole>
   <energy>
    <i name="e_fr_energy">   -101.71569370 </i>
    <i name="e_wo_entrp">   -101.70331345 </i>
    <i name="e_0_energy">   -101.71156695 </i>
   </energy>
  </scstep>
  <scstep>
   <time name="diag">    0.84    0.84</time>
   <time name="diis">    1.88    1.88</time>
   <time name="orth">    0.16    0.16</time>
   <time name="total">    3.70    3.71</time>
   <dipole>
    <v name="dipole">      0.00000000       0.00000000       0.20022088 </v>
    <i name="Tr[quadrupol]">  -6473.06129848 </i>
    <i name="Echarged">      0.00000000 </i>
    <i name="Edipol_quadrupol">      0.00000000 </i>
    <i name="Eion">      0.00000000 </i>
   </dipole>
   <energy>
    <i name="e_fr_energy">   -101.71577289 </i>
    <i name="e_wo_entrp">   -101.70340238 </i>
    <i name="e_0_energy">   -101.71164939 </i>
   </energy>
  </scstep>
  <scstep>
   <time name="diag">    0.88    0.88</time>
   <time name="diis">    1.90    1.91</time>
   <time name="orth">    0.16    0.16</time>
   <time name="total">    3.78    3.80</time>
   <dipole>
    <v name="dipole">      0.00000000       0.00000000       0.19992842 </v>
    <i name="Tr[quadrupol]">  -6473.05510222 </i>
    <i name="Echarged">      0.00000000 </i>
    <i name="Edipol_quadrupol">      0.00000000 </i>
    <i name="Eion">      0.00000000 </i>
   </dipole>
   <energy>
    <i name="e_fr_energy">   -101.71586089 </i>
    <i name="e_wo_entrp">   -101.70349768 </i>
    <i name="e_0_energy">   -101.71173982 </i>
   </energy>
  </scstep>
  <scstep>
   <time name="diag">    0.88    0.88</time>
   <time name="diis">    1.77    1.77</time>
   <time name="orth">    0.16    0.16</time>
   <time name="total">    3.66    3.67</time>
   <dipole>
    <v name="dipole">      0.00000000       0.00000000       0.19983871 </v>
    <i name="Tr[quadrupol]">  -6473.05183356 </i>
    <i name="Echarged">      0.00000000 </i>
    <i name="Edipol_quadrupol">      0.00000000 </i>
    <i name="Eion">      0.00000000 </i>
   </dipole>
   <energy>
    <i name="e_fr_energy">   -101.71589985 </i>
    <i name="e_wo_entrp">   -101.70354404 </i>
    <i name="e_0_energy">   -101.71178125 </i>
   </energy>
  </scstep>
  <scstep>
   <time name="diag">    0.84    0.84</time>
   <time name="diis">    1.62    1.62</time>
   <time name="orth">    0.16    0.16</time>
   <time name="total">    3.44    3.45</time>
   <dipole>
    <v name="dipole">      0.00000000       0.00000000       0.19992759 </v>
    <i name="Tr[quadrupol]">  -6473.04941925 </i>
    <i name="Echarged">      0.00000000 </i>
    <i name="Edipol_quadrupol">      0.00000000 </i>
    <i name="Eion">      0.00000000 </i>
   </dipole>
   <energy>
    <i name="e_fr_energy">   -101.71593247 </i>
    <i name="e_wo_entrp">   -101.70357107 </i>
    <i name="e_0_energy">   -101.71181201 </i>
   </energy>
  </scstep>
  <scstep>
   <time name="diag">    0.87    0.87</time>
   <time name="diis">    1.59    1.60</time>
   <time name="orth">    0.17    0.17</time>
   <time name="total">    3.48    3.49</time>
   <dipole>
    <v name="dipole">      0.00000000       0.00000000       0.20005278 </v>
    <i name="Tr[quadrupol]">  -6473.04902147 </i>
    <i name="Echarged">      0.00000000 </i>
    <i name="Edipol_quadrupol">      0.00000000 </i>
    <i name="Eion">      0.00000000 </i>
   </dipole>
   <energy>
    <i name="e_fr_energy">   -101.71594852 </i>
    <i name="e_wo_entrp">   -101.70358885 </i>
    <i name="e_0_energy">   -101.71182863 </i>
   </energy>
  </scstep>
  <scstep>
   <time name="diag">    0.89    0.89</time>
   <time name="diis">    1.60    1.60</time>
   <time name="orth">    0.16    0.16</time>
   <time name="total">    3.49    3.50</time>
   <dipole>
    <v name="dipole">      0.00000000       0.00000000       0.20019003 </v>
    <i name="Tr[quadrupol]">  -6473.04987885 </i>
    <i name="Echarged">      0.00000000 </i>
    <i name="Edipol_quadrupol">      0.00000000 </i>
    <i name="Eion">      0.00000000 </i>
   </dipole>
   <energy>
    <i name="e_fr_energy">   -101.71595761 </i>
    <i name="e_wo_entrp">   -101.70360298 </i>
    <i name="e_0_energy">   -101.71183940 </i>
   </energy>
  </scstep>
  <scstep>
   <time name="diag">    0.86    0.86</time>
   <time name="diis">    1.41    1.41</time>
   <time name="orth">    0.16    0.16</time>
   <time name="total">    3.27    3.28</time>
   <dipole>
    <v name="dipole">      0.00000000       0.00000000       0.20026268 </v>
    <i name="Tr[quadrupol]">  -6473.04978961 </i>
    <i name="Echarged">      0.00000000 </i>
    <i name="Edipol_quadrupol">      0.00000000 </i>
    <i name="Eion">      0.00000000 </i>
   </dipole>
   <energy>
    <i name="e_fr_energy">   -101.71596002 </i>
    <i name="e_wo_entrp">   -101.70360389 </i>
    <i name="e_0_energy">   -101.71184131 </i>
   </energy>
  </scstep>
  <scstep>
   <time name="diag">    0.83    0.83</time>
   <time name="diis">    1.19    1.19</time>
   <time name="orth">    0.16    0.16</time>
   <time name="total">    2.70    2.71</time>
   <dipole>
    <v name="dipole">      0.00000000       0.00000000       0.20030274 </v>
    <i name="Tr[quadrupol]">  -6473.05010816 </i>
    <i name="Echarged">      0.00000000 </i>
    <i name="Edipol_quadrupol">      0.00000000 </i>
    <i name="Eion">      0.00000000 </i>
   </dipole>
   <energy>
    <i name="alphaZ">   1018.89704482 </i>
    <i name="ewald"> 133529.80051456 </i>
    <i name="hartreedc">-181529.55033984 </i>
    <i name="XCdc">   -530.16277185 </i>
    <i name="pawpsdc">  49382.02487328 </i>
    <i name="pawaedc"> -47336.38561034 </i>
    <i name="eentropy">     -0.01235599 </i>
    <i name="bandstr">  -1324.79887020 </i>
    <i name="atom">  46688.47155493 </i>
    <i name="e_fr_energy">   -101.71596063 </i>
    <i name="e_wo_entrp">   -101.70360464 </i>
    <i name="e_0_energy">   -101.71184196 </i>
   </energy>
  </scstep>
  <structure>
   <crystal>
    <varray name="basis" >
     <v>       8.93075865       0.00000000       0.00000000 </v>
     <v>       4.46537932       7.73426386       0.00000000 </v>
     <v>       0.00000000       0.00000000      24.72257853 </v>
    </varray>
    <i name="volume">   1707.65880700 </i>
    <varray name="rec_basis" >
     <v>       0.11197257      -0.06464739       0.00000000 </v>
     <v>       0.00000000       0.12929479       0.00000000 </v>
     <v>       0.00000000       0.00000000       0.04044886 </v>
    </varray>
   </crystal>
   <varray name="positions" >
    <v>       0.88888889       0.22222222       0.30336641 </v>
    <v>       0.22222222       0.22222222       0.30336641 </v>
    <v>       0.55555556       0.22222222       0.30336641 </v>
    <v>       0.88888889       0.55555556       0.30336641 </v>
    <v>       0.22222222       0.55555556       0.30336641 </v>
    <v>       0.55555556       0.55555556       0.30336641 </v>
    <v>       0.88888889       0.88888889       0.30336641 </v>
    <v>       0.22222222       0.88888889       0.30336641 </v>
    <v>       0.55555556       0.88888889       0.30336641 </v>
    <v>       0.00000000       0.00000000       0.40168321 </v>
    <v>       0.33333333       0.00000000       0.40168321 </v>
    <v>       0.66666667       0.00000000       0.40168321 </v>
    <v>       0.00000000       0.33333333       0.40168321 </v>
    <v>       0.33333333       0.33333333       0.40168321 </v>
    <v>       0.66666667       0.33333333       0.40168321 </v>
    <v>       0.00000000       0.66666667       0.40168321 </v>
    <v>       0.33333333       0.66666667       0.40168321 </v>
    <v>       0.66666667       0.66666667       0.40168321 </v>
    <v>       0.11075049       0.11075049       0.50056804 </v>
    <v>       0.44456917       0.11086166       0.49981223 </v>
    <v>       0.77849901       0.11075049       0.50056804 </v>
    <v>       0.11086166       0.44456917       0.49981223 </v>
    <v>       0.44456917       0.44456917       0.49981223 </v>
    <v>       0.77790438       0.44419123       0.50038475 </v>
    <v>       0.11075049       0.77849901       0.50056804 </v>
    <v>       0.44419123       0.77790438       0.50038475 </v>
    <v>       0.77790438       0.77790438       0.50038475 </v>
    <v>       0.88860671       0.22278658       0.59923470 </v>
    <v>       0.22298931       0.22298931       0.59793300 </v>
    <v>       0.55402138       0.22298931       0.59793300 </v>
    <v>       0.88905604       0.55547198       0.59850650 </v>
    <v>       0.22298931       0.55402138       0.59793300 </v>
    <v>       0.55547198       0.55547198       0.59850650 </v>
    <v>       0.88860671       0.88860671       0.59923470 </v>
    <v>       0.22278658       0.88860671       0.59923470 </v>
    <v>       0.55547198       0.88905604       0.59850650 </v>
    <v>       0.00000000       0.00000000       0.69735864 </v>
    <v>       0.33303373       0.00108233       0.69746823 </v>
    <v>       0.66588394       0.00108233       0.69746823 </v>
    <v>       0.00108233       0.33303373       0.69746823 </v>
    <v>       0.66588394       0.33303373       0.69746823 </v>
    <v>       0.00108233       0.66588394       0.69746823 </v>
    <v>       0.33303373       0.66588394       0.69746823 </v>
    <v>       0.66666667       0.66666667       0.69641327 </v>
    <v>       0.33333333       0.33333333       0.69458653 </v>
    <v>       0.33333333       0.33333333       0.76634937 </v>
   </varray>
  </structure>
  <varray name="forces" >
   <v>      -0.00000000      -0.00047414       0.01490074 </v>
   <v>       0.04586178       0.02647831      -0.02653290 </v>
   <v>      -0.04586178       0.02647831      -0.02653290 </v>
   <v>       0.01149514      -0.00663672       0.01038897 </v>
   <v>      -0.00000000      -0.05295663      -0.02653290 </v>
   <v>      -0.01149514      -0.00663672       0.01038897 </v>
   <v>       0.00041062       0.00023707       0.01490074 </v>
   <v>      -0.00041062       0.00023707       0.01490074 </v>
   <v>      -0.00000000       0.01327345       0.01038897 </v>
   <v>      -0.00000000      -0.00000000       0.00504058 </v>
   <v>      -0.01410720      -0.00645909       0.00514289 </v>
   <v>       0.01410720      -0.00645909       0.00514289 </v>
   <v>      -0.01264734      -0.00898765       0.00514289 </v>
   <v>      -0.00000000      -0.00000000      -0.00212323 </v>
   <v>       0.01264734      -0.00898765       0.00514289 </v>
   <v>       0.00145986       0.01544674       0.00514289 </v>
   <v>      -0.00145986       0.01544674       0.00514289 </v>
   <v>      -0.00000000      -0.00000000      -0.00825239 </v>
   <v>       0.00025174       0.00014534      -0.00144624 </v>
   <v>      -0.00000000      -0.00502833      -0.00339796 </v>
   <v>      -0.00025174       0.00014534      -0.00144624 </v>
   <v>      -0.00435466       0.00251417      -0.00339796 </v>
   <v>       0.00435466       0.00251417      -0.00339796 </v>
   <v>      -0.00000000      -0.00549812      -0.00314082 </v>
   <v>      -0.00000000      -0.00029068      -0.00144624 </v>
   <v>      -0.00476151       0.00274906      -0.00314082 </v>
   <v>       0.00476151       0.00274906      -0.00314082 </v>
   <v>      -0.00000000       0.00721180      -0.00220001 </v>
   <v>      -0.00685099      -0.00395542      -0.01074675 </v>
   <v>       0.00685099      -0.00395542      -0.01074675 </v>
   <v>       0.00739031      -0.00426679       0.00033580 </v>
   <v>      -0.00000000       0.00791084      -0.01074675 </v>
   <v>      -0.00739031      -0.00426679       0.00033580 </v>
   <v>      -0.00624560      -0.00360590      -0.00220001 </v>
   <v>       0.00624560      -0.00360590      -0.00220001 </v>
   <v>      -0.00000000       0.00853359       0.00033580 </v>
   <v>      -0.00000000      -0.00000000      -0.00708594 </v>
   <v>      -0.00209810      -0.01376376      -0.01619485 </v>
   <v>       0.00209810      -0.01376376      -0.01619485 </v>
   <v>      -0.01296882       0.00506487      -0.01619485 </v>
   <v>       0.01296882       0.00506487      -0.01619485 </v>
   <v>      -0.01087072       0.00869889      -0.01619485 </v>
   <v>       0.01087072       0.00869889      -0.01619485 </v>
   <v>      -0.00000000      -0.00000000       0.00222787 </v>
   <v>      -0.00000000      -0.00000000      -0.64601380 </v>
   <v>      -0.00000000      -0.00000000       0.78803611 </v>
  </varray>
  <varray name="stress" >
   <v>     -10.79398474       0.00000000       0.00000000 </v>
   <v>       0.00000000     -10.79398474      -0.00000000 </v>
   <v>       0.00000000       0.00000000      -1.12237426 </v>
  </varray>
  <energy>
   <i name="e_fr_energy">   -101.71596063 </i>
   <i name="e_wo_entrp">   -101.71184196 </i>
   <i name="e_0_energy">     -0.01235599 </i>
  </energy>
  <time name="totalsc">  189.07  189.88</time>
 </calculation>
 <calculation>
  <scstep>
   <time name="dav">    4.91    4.92</time>
   <time name="total">    5.74    5.76</time>
   <dipole>
    <v name="dipole">      0.00000000       0.00000000       0.20033344 </v>
    <i name="Tr[quadrupol]">  -6473.03107941 </i>
    <i name="Echarged">      0.00000000 </i>
    <i name="Edipol_quadrupol">      0.00000000 </i>
    <i name="Eion">      0.00000000 </i>
   </dipole>
   <energy>
    <i name="alphaZ">   1018.89783091 </i>
    <i name="ewald"> 133536.19071066 </i>
    <i name="hartreedc">-181536.31942244 </i>
    <i name="XCdc">   -530.18706100 </i>
    <i name="pawpsdc">  49382.02411268 </i>
    <i name="pawaedc"> -47336.38484535 </i>
    <i name="eentropy">     -0.01179627 </i>
    <i name="bandstr">  -1324.40438998 </i>
    <i name="atom">  46688.47155493 </i>
    <i name="e_fr_energy">   -101.72330585 </i>
    <i name="e_wo_entrp">   -101.71150959 </i>
    <i name="e_0_energy">   -101.71937376 </i>
   </energy>
  </scstep>
  <scstep>
   <time name="diag">    0.89    0.89</time>
   <time name="diis">    2.63    2.63</time>
   <time name="orth">    0.16    0.16</time>
   <time name="total">    4.51    4.53</time>
   <dipole>
    <v name="dipole">      0.00000000       0.00000000       0.21811143 </v>
    <i name="Tr[quadrupol]">  -6473.00457424 </i>
    <i name="Echarged">      0.00000000 </i>
    <i name="Edipol_quadrupol">      0.00000000 </i>
    <i name="Eion">      0.00000000 </i>
   </dipole>
   <energy>
    <i name="e_fr_energy">   -101.72669473 </i>
    <i name="e_wo_entrp">   -101.71538601 </i>
    <i name="e_0_energy">   -101.72292516 </i>
   </energy>
  </scstep>
  <scstep>
   <time name="diag">    0.85    0.85</time>
   <time name="diis">    2.51    2.52</time>
   <time name="orth">    0.15    0.16</time>
   <time name="total">    4.39    4.40</time>
   <dipole>
    <v name="dipole">      0.00000000       0.00000000       0.19730171 </v>
    <i name="Tr[quadrupol]">  -6473.02409266 </i>
    <i name="Echarged">      0.00000000 </i>
    <i name="Edipol_quadrupol">      0.00000000 </i>
    <i name="Eion">      0.00000000 </i>
   </dipole>
   <energy>
    <i name="e_fr_energy">   -101.72374178 </i>
    <i name="e_wo_entrp">   -101.71224502 </i>
    <i name="e_0_energy">   -101.71990953 </i>
   </energy>
  </scstep>
  <scstep>
   <time name="diag">    0.87    0.87</time>
   <time name="diis">    2.60    2.60</time>
   <time name="orth">    0.16    0.16</time>
   <time name="total">    4.50    4.52</time>
   <dipole>
    <v name="dipole">      0.00000000       0.00000000       0.23054173 </v>
    <i name="Tr[quadrupol]">  -6472.99450668 </i>
    <i name="Echarged">      0.00000000 </i>
    <i name="Edipol_quadrupol">      0.00000000 </i>
    <i name="Eion">      0.00000000 </i>
   </dipole>
   <energy>
    <i name="e_fr_energy">   -101.72896796 </i>
    <i name="e_wo_entrp">   -101.71778659 </i>
    <i name="e_0_energy">   -101.72524084 </i>
   </energy>
  </scstep>
  <scstep>
   <time name="diag">    0.89    0.89</time>
   <time name="diis">    2.50    2.50</time>
   <time name="orth">    0.16    0.16</time>
   <time name="total">    4.41    4.42</time>
   <dipole>
    <v name="dipole">      0.00000000       0.00000000       0.20139449 </v>
    <i name="Tr[quadrupol]">  -6473.00260636 </i>
    <i name="Echarged">      0.00000000 </i>
    <i name="Edipol_quadrupol">      0.00000000 </i>
    <i name="Eion">      0.00000000 </i>
   </dipole>
   <energy>
    <i name="e_fr_energy">   -101.72227883 </i>
    <i name="e_wo_entrp">   -101.71091808 </i>
    <i name="e_0_energy">   -101.71849192 </i>
   </energy>
  </scstep>
  <scstep>
   <time name="diag">    0.84    0.84</time>
   <time name="diis">    2.54    2.55</time>
   <time name="orth">    0.16    0.16</time>
   <time name="total">    4.36    4.38</time>
   <dipole>
    <v name="dipole">      0.00000000       0.00000000       0.20403499 </v>
    <i name="Tr[quadrupol]">  -6473.01257856 </i>
    <i name="Echarged">      0.00000000 </i>
    <i name="Edipol_quadrupol">      0.00000000 </i>
    <i name="Eion">      0.00000000 </i>
   </dipole>
   <energy>
    <i name="e_fr_energy">   -101.72213812 </i>
    <i name="e_wo_entrp">   -101.71080304 </i>
    <i name="e_0_energy">   -101.71835976 </i>
   </energy>
  </scstep>
  <scstep>
   <time name="diag">    0.90    0.90</time>
   <time name="diis">    2.44    2.44</time>
   <time name="orth">    0.16    0.16</time>
   <time name="total">    4.41    4.43</time>
   <dipole>
    <v name="dipole">      0.00000000       0.00000000       0.20132168 </v>
    <i name="Tr[quadrupol]">  -6473.00914660 </i>
    <i name="Echarged">      0.00000000 </i>
    <i name="Edipol_quadrupol">      0.00000000 </i>
    <i name="Eion">      0.00000000 </i>
   </dipole>
   <energy>
    <i name="e_fr_energy">   -101.72222091 </i>
    <i name="e_wo_entrp">   -101.71085408 </i>
    <i name="e_0_energy">   -101.71843197 </i>
   </energy>
  </scstep>
  <scstep>
   <time name="diag">    0.84    0.84</time>
   <time name="diis">    1.86    1.86</time>
   <time name="orth">    0.16    0.16</time>
   <time name="total">    3.68    3.69</time>
   <dipole>
    <v name="dipole">      0.00000000       0.00000000       0.20243787 </v>
    <i name="Tr[quadrupol]">  -6473.01134469 </i>
    <i name="Echarged">      0.00000000 </i>
    <i name="Edipol_quadrupol">      0.00000000 </i>
    <i name="Eion">      0.00000000 </i>
   </dipole>
   <energy>
    <i name="e_fr_energy">   -101.72232216 </i>
    <i name="e_wo_entrp">   -101.71095833 </i>
    <i name="e_0_energy">   -101.71853422 </i>
   </energy>
  </scstep>
  <scstep>
   <time name="diag">    0.84    0.84</time>
   <time name="diis">    1.87    1.87</time>
   <time name="orth">    0.15    0.16</time>
   <time name="total">    3.69    3.70</time>
   <dipole>
    <v name="dipole">      0.00000000       0.00000000       0.20229511 </v>
    <i name="Tr[quadrupol]">  -6473.00956330 </i>
    <i name="Echarged">      0.00000000 </i>
    <i name="Edipol_quadrupol">      0.00000000 </i>
    <i name="Eion">      0.00000000 </i>
   </dipole>
   <energy>
    <i name="e_fr_energy">   -101.72259855 </i>
    <i name="e_wo_entrp">   -101.71122773 </i>
    <i name="e_0_energy">   -101.71880828 </i>
   </energy>
  </scstep>
  <scstep>
   <time name="diag">    0.84    0.84</time>
   <time name="diis">    1.66    1.66</time>
   <time name="orth">    0.16    0.16</time>
   <time name="total">    3.52    3.54</time>
   <dipole>
    <v name="dipole">      0.00000000       0.00000000       0.20235731 </v>
    <i name="Tr[quadrupol]">  -6473.00877481 </i>
    <i name="Echarged">      0.00000000 </i>
    <i name="Edipol_quadrupol">      0.00000000 </i>
    <i name="Eion">      0.00000000 </i>
   </dipole>
   <energy>
    <i name="e_fr_energy">   -101.72281328 </i>
    <i name="e_wo_entrp">   -101.71144845 </i>
    <i name="e_0_energy">   -101.71902501 </i>
   </energy>
  </scstep>
  <scstep>
   <time name="diag">    0.89    0.89</time>
   <time name="diis">    1.97    1.97</time>
   <time name="orth">    0.16    0.16</time>
   <time name="total">    3.86    3.87</time>
   <dipole>
    <v name="dipole">      0.00000000       0.00000000       0.20248012 </v>
    <i name="Tr[quadrupol]">  -6473.00475408 </i>
    <i name="Echarged">      0.00000000 </i>
    <i name="Edipol_quadrupol">      0.00000000 </i>
    <i name="Eion">      0.00000000 </i>
   </dipole>
   <energy>
    <i name="e_fr_energy">   -101.72346703 </i>
    <i name="e_wo_entrp">   -101.71211671 </i>
    <i name="e_0_energy">   -101.71968359 </i>
   </energy>
  </scstep>
  <scstep>
   <time name="diag">    0.88    0.88</time>
   <time name="diis">    1.85    1.87</time>
   <time name="orth">    0.16    0.16</time>
   <time name="total">    3.73    3.75</time>
   <dipole>
    <v name="dipole">      0.00000000       0.00000000       0.20261656 </v>
    <i name="Tr[quadrupol]">  -6473.00184204 </i>
    <i name="Echarged">      0.00000000 </i>
    <i name="Edipol_quadrupol">      0.00000000 </i>
    <i name="Eion">      0.00000000 </i>
   </dipole>
   <energy>
    <i name="e_fr_energy">   -101.72385687 </i>
    <i name="e_wo_entrp">   -101.71251455 </i>
    <i name="e_0_energy">   -101.72007609 </i>
   </energy>
  </scstep>
  <scstep>
   <time name="diag">    0.84    0.84</time>
   <time name="diis">    1.61    1.62</time>
   <time name="orth">    0.15    0.15</time>
   <time name="total">    3.43    3.44</time>
   <dipole>
    <v name="dipole">      0.00000000       0.00000000       0.20267569 </v>
    <i name="Tr[quadrupol]">  -6473.00026731 </i>
    <i name="Echarged">      0.00000000 </i>
    <i name="Edipol_quadrupol">      0.00000000 </i>
    <i name="Eion">      0.00000000 </i>
   </dipole>
   <energy>
    <i name="e_fr_energy">   -101.72397840 </i>
    <i name="e_wo_entrp">   -101.71263839 </i>
    <i name="e_0_energy">   -101.72019840 </i>
   </energy>
  </scstep>
  <scstep>
   <time name="diag">    0.89    0.89</time>
   <time name="diis">    1.61    1.62</time>
   <time name="orth">    0.16    0.16</time>
   <time name="total">    3.53    3.54</time>
   <dipole>
    <v name="dipole">      0.00000000       0.00000000       0.20273087 </v>
    <i name="Tr[quadrupol]">  -6472.99912999 </i>
    <i name="Echarged">      0.00000000 </i>
    <i name="Edipol_quadrupol">      0.00000000 </i>
    <i name="Eion">      0.00000000 </i>
   </dipole>
   <energy>
    <i name="e_fr_energy">   -101.72401892 </i>
    <i name="e_wo_entrp">   -101.71267869 </i>
    <i name="e_0_energy">   -101.72023884 </i>
   </energy>
  </scstep>
  <scstep>
   <time name="diag">    0.88    0.89</time>
   <time name="diis">    1.41    1.41</time>
   <time name="orth">    0.16    0.16</time>
   <time name="total">    3.32    3.34</time>
   <dipole>
    <v name="dipole">      0.00000000       0.00000000       0.20274970 </v>
    <i name="Tr[quadrupol]">  -6472.99875606 </i>
    <i name="Echarged">      0.00000000 </i>
    <i name="Edipol_quadrupol">      0.00000000 </i>
    <i name="Eion">      0.00000000 </i>
   </dipole>
   <energy>
    <i name="e_fr_energy">   -101.72401724 </i>
    <i name="e_wo_entrp">   -101.71267665 </i>
    <i name="e_0_energy">   -101.72023705 </i>
   </energy>
  </scstep>
  <scstep>
   <time name="diag">    0.83    0.84</time>
   <time name="diis">    1.26    1.26</time>
   <time name="orth">    0.16    0.16</time>
   <time name="total">    3.08    3.09</time>
   <dipole>
    <v name="dipole">      0.00000000       0.00000000       0.20276446 </v>
    <i name="Tr[quadrupol]">  -6472.99832745 </i>
    <i name="Echarged">      0.00000000 </i>
    <i name="Edipol_quadrupol">      0.00000000 </i>
    <i name="Eion">      0.00000000 </i>
   </dipole>
   <energy>
    <i name="e_fr_energy">   -101.72401498 </i>
    <i name="e_wo_entrp">   -101.71267414 </i>
    <i name="e_0_energy">   -101.72023470 </i>
   </energy>
  </scstep>
  <scstep>
   <time name="diag">    0.84    0.84</time>
   <time name="diis">    1.21    1.21</time>
   <time name="orth">    0.15    0.16</time>
   <time name="total">    2.73    2.74</time>
   <dipole>
    <v name="dipole">      0.00000000       0.00000000       0.20277502 </v>
    <i name="Tr[quadrupol]">  -6472.99797736 </i>
    <i name="Echarged">      0.00000000 </i>
    <i name="Edipol_quadrupol">      0.00000000 </i>
    <i name="Eion">      0.00000000 </i>
   </dipole>
   <energy>
    <i name="alphaZ">   1018.88995785 </i>
    <i name="ewald"> 133536.19071066 </i>
    <i name="hartreedc">-181535.84198501 </i>
    <i name="XCdc">   -530.17469962 </i>
    <i name="pawpsdc">  49372.76400282 </i>
    <i name="pawaedc"> -47327.02633239 </i>
    <i name="eentropy">     -0.01134020 </i>
    <i name="bandstr">  -1324.98588350 </i>
    <i name="atom">  46688.47155493 </i>
    <i name="e_fr_energy">   -101.72401445 </i>
    <i name="e_wo_entrp">   -101.71267426 </i>
    <i name="e_0_energy">   -101.72023439 </i>
   </energy>
  </scstep>
  <structure>
   <crystal>
    <varray name="basis" >
     <v>       8.93075865       0.00000000       0.00000000 </v>
     <v>       4.46537932       7.73426386       0.00000000 </v>
     <v>       0.00000000       0.00000000      24.72257853 </v>
    </varray>
    <i name="volume">   1707.65880700 </i>
    <varray name="rec_basis" >
     <v>       0.11197257      -0.06464739       0.00000000 </v>
     <v>       0.00000000       0.12929479       0.00000000 </v>
     <v>       0.00000000       0.00000000       0.04044886 </v>
    </varray>
   </crystal>
   <varray name="positions" >
    <v>       0.88888889       0.22222222       0.30336641 </v>
    <v>       0.22222222       0.22222222       0.30336641 </v>
    <v>       0.55555556       0.22222222       0.30336641 </v>
    <v>       0.88888889       0.55555556       0.30336641 </v>
    <v>       0.22222222       0.55555556       0.30336641 </v>
    <v>       0.55555556       0.55555556       0.30336641 </v>
    <v>       0.88888889       0.88888889       0.30336641 </v>
    <v>       0.22222222       0.88888889       0.30336641 </v>
    <v>       0.55555556       0.88888889       0.30336641 </v>
    <v>       0.00000000       0.00000000       0.40168321 </v>
    <v>       0.33333333       0.00000000       0.40168321 </v>
    <v>       0.66666667       0.00000000       0.40168321 </v>
    <v>       0.00000000       0.33333333       0.40168321 </v>
    <v>       0.33333333       0.33333333       0.40168321 </v>
    <v>       0.66666667       0.33333333       0.40168321 </v>
    <v>       0.00000000       0.66666667       0.40168321 </v>
    <v>       0.33333333       0.66666667       0.40168321 </v>
    <v>       0.66666667       0.66666667       0.40168321 </v>
    <v>       0.11075068       0.11075068       0.50056747 </v>
    <v>       0.44457231       0.11085539       0.49981091 </v>
    <v>       0.77849865       0.11075068       0.50056747 </v>
    <v>       0.11085539       0.44457231       0.49981091 </v>
    <v>       0.44457231       0.44457231       0.49981091 </v>
    <v>       0.77790781       0.44418437       0.50038353 </v>
    <v>       0.11075068       0.77849865       0.50056747 </v>
    <v>       0.44418437       0.77790781       0.50038353 </v>
    <v>       0.77790781       0.77790781       0.50038353 </v>
    <v>       0.88860221       0.22279558       0.59923384 </v>
    <v>       0.22298437       0.22298437       0.59792881 </v>
    <v>       0.55403125       0.22298437       0.59792881 </v>
    <v>       0.88906668       0.55546666       0.59850663 </v>
    <v>       0.22298437       0.55403125       0.59792881 </v>
    <v>       0.55546666       0.55546666       0.59850663 </v>
    <v>       0.88860221       0.88860221       0.59923384 </v>
    <v>       0.22279558       0.88860221       0.59923384 </v>
    <v>       0.55546666       0.88906668       0.59850663 </v>
    <v>      -0.00000000      -0.00000000       0.69735588 </v>
    <v>       0.33304005       0.00106516       0.69746191 </v>
    <v>       0.66589479       0.00106516       0.69746191 </v>
    <v>       0.00106516       0.33304005       0.69746191 </v>
    <v>       0.66589479       0.33304005       0.69746191 </v>
    <v>       0.00106516       0.66589479       0.69746191 </v>
    <v>       0.33304005       0.66589479       0.69746191 </v>
    <v>       0.66666667       0.66666667       0.69641414 </v>
    <v>       0.33333333       0.33333333       0.69433441 </v>
    <v>       0.33333333       0.33333333       0.76665692 </v>
   </varray>
  </structure>
  <varray name="forces" >
   <v>       0.00000000      -0.00071626       0.01425502 </v>
   <v>       0.04578233       0.02643244      -0.02703497 </v>
   <v>      -0.04578233       0.02643244      -0.02703497 </v>
   <v>       0.01139180      -0.00657706       0.00957793 </v>
   <v>      -0.00000000      -0.05286488      -0.02703497 </v>
   <v>      -0.01139180      -0.00657706       0.00957793 </v>
   <v>       0.00062030       0.00035813       0.01425502 </v>
   <v>      -0.00062030       0.00035813       0.01425502 </v>
   <v>       0.00000000       0.01315412       0.00957793 </v>
   <v>       0.00000000       0.00000000       0.00533348 </v>
   <v>      -0.01400432      -0.00611417       0.00508438 </v>
   <v>       0.01400432      -0.00611417       0.00508438 </v>
   <v>      -0.01229718      -0.00907101       0.00508438 </v>
   <v>       0.00000000       0.00000000      -0.00222254 </v>
   <v>       0.01229718      -0.00907101       0.00508438 </v>
   <v>       0.00170713       0.01518518       0.00508438 </v>
   <v>      -0.00170713       0.01518518       0.00508438 </v>
   <v>       0.00000000       0.00000000      -0.00731127 </v>
   <v>       0.00047958       0.00027688      -0.00105472 </v>
   <v>      -0.00000000      -0.00512783      -0.00359111 </v>
   <v>      -0.00047958       0.00027688      -0.00105472 </v>
[...]
       <r>   -13.4504     0.0000     0.0000 </r>
       <r>   -13.3699     0.0000     0.0000 </r>
       <r>   -13.2894     0.0000     0.0000 </r>
       <r>   -13.2089     0.0000     0.0000 </r>
       <r>   -13.1284     0.0000     0.0000 </r>
       <r>   -13.0479     0.0000     0.0000 </r>
       <r>   -12.9674     0.0000     0.0000 </r>
       <r>   -12.8869     0.0000     0.0000 </r>
       <r>   -12.8064     0.0000     0.0000 </r>
       <r>   -12.7259     0.0000     0.0000 </r>
       <r>   -12.6454     0.0000     0.0000 </r>
       <r>   -12.5649     0.0000     0.0000 </r>
       <r>   -12.4844     0.0000     0.0000 </r>
       <r>   -12.4039     0.0000     0.0000 </r>
       <r>   -12.3234     0.0000     0.0000 </r>
       <r>   -12.2429     0.0000     0.0000 </r>
       <r>   -12.1624     0.0000     0.0000 </r>
       <r>   -12.0819     0.0000     0.0000 </r>
       <r>   -12.0014    -0.0000    -0.0000 </r>
       <r>   -11.9209    -0.0000    -0.0000 </r>
       <r>   -11.8404    -0.0000    -0.0000 </r>
       <r>   -11.7599    -0.0000    -0.0000 </r>
       <r>   -11.6794    -0.0000    -0.0000 </r>
       <r>   -11.5989    -0.0000    -0.0000 </r>
       <r>   -11.5184    -0.0000    -0.0000 </r>
       <r>   -11.4378    -0.0022    -0.0002 </r>
       <r>   -11.3573    -0.0756    -0.0063 </r>
       <r>   -11.2768    -0.3592    -0.0352 </r>
       <r>   -11.1963     2.3112     0.1509 </r>
       <r>   -11.1158     7.7095     0.7715 </r>
       <r>   -11.0353     3.2659     1.0344 </r>
       <r>   -10.9548    -0.3120     1.0093 </r>
       <r>   -10.8743    -0.1114     1.0003 </r>
       <r>   -10.7938    -0.0042     1.0000 </r>
       <r>   -10.7133    -0.0000     1.0000 </r>
       <r>   -10.6328    -0.0000     1.0000 </r>
       <r>   -10.5523    -0.0000     1.0000 </r>
       <r>   -10.4718    -0.0000     1.0000 </r>
       <r>   -10.3913     0.0000     1.0000 </r>
       <r>   -10.3108     0.0000     1.0000 </r>
       <r>   -10.2303     0.0000     1.0000 </r>
       <r>   -10.1498     0.0000     1.0000 </r>
       <r>   -10.0693     0.0000     1.0000 </r>
       <r>    -9.9888     0.0000     1.0000 </r>
       <r>    -9.9083     0.0000     1.0000 </r>
       <r>    -9.8278     0.0000     1.0000 </r>
       <r>    -9.7473     0.0000     1.0000 </r>
       <r>    -9.6668     0.0000     1.0000 </r>
       <r>    -9.5863     0.0000     1.0000 </r>
       <r>    -9.5058     0.0000     1.0000 </r>
       <r>    -9.4253     0.0000     1.0000 </r>
       <r>    -9.3448     0.0000     1.0000 </r>
       <r>    -9.2643     0.0000     1.0000 </r>
       <r>    -9.1838     0.0000     1.0000 </r>
       <r>    -9.1033     0.0000     1.0000 </r>
       <r>    -9.0228     0.0000     1.0000 </r>
       <r>    -8.9422     0.0000     1.0000 </r>
       <r>    -8.8617     0.0000     1.0000 </r>
       <r>    -8.7812     0.0000     1.0000 </r>
       <r>    -8.7007     0.0000     1.0000 </r>
       <r>    -8.6202     0.0000     1.0000 </r>
       <r>    -8.5397     0.0000     1.0000 </r>
       <r>    -8.4592     0.0000     1.0000 </r>
       <r>    -8.3787     0.0000     1.0000 </r>
       <r>    -8.2982     0.0000     1.0000 </r>
       <r>    -8.2177     0.0000     1.0000 </r>
       <r>    -8.1372     0.0000     1.0000 </r>
       <r>    -8.0567     0.0000     1.0000 </r>
       <r>    -7.9762     0.0000     1.0000 </r>
       <r>    -7.8957     0.0000     1.0000 </r>
       <r>    -7.8152     0.0000     1.0000 </r>
       <r>    -7.7347     0.0000     1.0000 </r>
       <r>    -7.6542     0.0000     1.0000 </r>
       <r>    -7.5737     0.0000     1.0000 </r>
       <r>    -7.4932     0.0000     1.0000 </r>
       <r>    -7.4127     0.0000     1.0000 </r>
       <r>    -7.3322     0.0000     1.0000 </r>
       <r>    -7.2517     0.0000     1.0000 </r>
       <r>    -7.1712     0.0000     1.0000 </r>
       <r>    -7.0907     0.0000     1.0000 </r>
       <r>    -7.0102     0.0000     1.0000 </r>
       <r>    -6.9297     0.0000     1.0000 </r>
       <r>    -6.8492     0.0000     1.0000 </r>
       <r>    -6.7687     0.0000     1.0000 </r>
       <r>    -6.6882     0.0000     1.0000 </r>
       <r>    -6.6077     0.0000     1.0000 </r>
       <r>    -6.5272     0.0000     1.0000 </r>
       <r>    -6.4466     0.0000     1.0000 </r>
       <r>    -6.3661    -0.0000     1.0000 </r>
       <r>    -6.2856    -0.0000     1.0000 </r>
       <r>    -6.2051    -0.0000     1.0000 </r>
       <r>    -6.1246    -0.0000     1.0000 </r>
       <r>    -6.0441    -0.0000     1.0000 </r>
       <r>    -5.9636    -0.0000     1.0000 </r>
       <r>    -5.8831    -0.0000     1.0000 </r>
       <r>    -5.8026    -0.0006     1.0000 </r>
       <r>    -5.7221    -0.0141     0.9988 </r>
       <r>    -5.6416    -0.0306     0.9964 </r>
       <r>    -5.5611     0.4035     1.0288 </r>
       <r>    -5.4806     0.8405     1.0965 </r>
       <r>    -5.4001     0.0948     1.1041 </r>
       <r>    -5.3196    -0.0646     1.0989 </r>
       <r>    -5.2391     3.2862     1.3635 </r>
       <r>    -5.1586     4.6912     1.7411 </r>
       <r>    -5.0781     0.6920     1.7968 </r>
       <r>    -4.9976    -0.2544     1.7764 </r>
       <r>    -4.9171     0.0953     1.7840 </r>
       <r>    -4.8366     0.5991     1.8323 </r>
       <r>    -4.7561     0.8946     1.9043 </r>
       <r>    -4.6756     4.0370     2.2293 </r>
       <r>    -4.5951     6.3358     2.7393 </r>
       <r>    -4.5146    10.0416     3.5477 </r>
       <r>    -4.4341    11.4151     4.4667 </r>
       <r>    -4.3536    18.2113     5.9327 </r>
       <r>    -4.2731    37.5440     8.9551 </r>
       <r>    -4.1926    53.0274    13.2240 </r>
       <r>    -4.1121    57.0437    17.8162 </r>
       <r>    -4.0316    64.1158    22.9778 </r>
       <r>    -3.9510    79.4023    29.3699 </r>
       <r>    -3.8705    67.9202    34.8377 </r>
       <r>    -3.7900    68.1415    40.3233 </r>
       <r>    -3.7095    72.5271    46.1620 </r>
       <r>    -3.6290    79.1051    52.5302 </r>
       <r>    -3.5485    52.6394    56.7678 </r>
       <r>    -3.4680    43.2038    60.2459 </r>
       <r>    -3.3875    75.8565    66.3526 </r>
       <r>    -3.3070    68.1988    71.8428 </r>
       <r>    -3.2265    71.7046    77.6152 </r>
       <r>    -3.1460    79.7230    84.0332 </r>
       <r>    -3.0655    81.5366    90.5971 </r>
       <r>    -2.9850    99.2344    98.5858 </r>
       <r>    -2.9045    92.8868   106.0635 </r>
       <r>    -2.8240    80.5683   112.5495 </r>
       <r>    -2.7435    92.8133   120.0213 </r>
       <r>    -2.6630    91.4826   127.3859 </r>
       <r>    -2.5825    71.8948   133.1737 </r>
       <r>    -2.5020    78.7012   139.5094 </r>
       <r>    -2.4215    86.0215   146.4344 </r>
       <r>    -2.3410   101.3502   154.5934 </r>
       <r>    -2.2605    84.2283   161.3741 </r>
       <r>    -2.1800    59.6987   166.1800 </r>
       <r>    -2.0995    74.7184   172.1951 </r>
       <r>    -2.0190    99.0652   180.1701 </r>
       <r>    -1.9385   100.9261   188.2950 </r>
       <r>    -1.8580    86.4097   195.2513 </r>
       <r>    -1.7775    88.7359   202.3948 </r>
       <r>    -1.6970    97.8125   210.2690 </r>
       <r>    -1.6165   106.2229   218.8203 </r>
       <r>    -1.5360    90.2521   226.0859 </r>
       <r>    -1.4554    48.1130   229.9591 </r>
       <r>    -1.3749    13.7621   231.0670 </r>
       <r>    -1.2944     9.0457   231.7952 </r>
       <r>    -1.2139    11.2922   232.7043 </r>
       <r>    -1.1334     5.8667   233.1766 </r>
       <r>    -1.0529     7.2673   233.7616 </r>
       <r>    -0.9724     7.2831   234.3479 </r>
       <r>    -0.8919     9.5047   235.1131 </r>
       <r>    -0.8114    12.0422   236.0825 </r>
       <r>    -0.7309     4.2615   236.4256 </r>
       <r>    -0.6504     0.5233   236.4677 </r>
       <r>    -0.5699     3.9553   236.7861 </r>
       <r>    -0.4894     3.8875   237.0991 </r>
       <r>    -0.4089    -0.1278   237.0888 </r>
       <r>    -0.3284     2.4764   237.2882 </r>
       <r>    -0.2479     8.9502   238.0087 </r>
       <r>    -0.1674     5.2856   238.4342 </r>
       <r>    -0.0869     4.2954   238.7800 </r>
       <r>    -0.0064    11.9763   239.7441 </r>
       <r>     0.0741    13.8913   240.8624 </r>
       <r>     0.1546     9.6114   241.6362 </r>
       <r>     0.2351     1.8442   241.7846 </r>
       <r>     0.3156     1.1927   241.8806 </r>
       <r>     0.3961     7.8161   242.5099 </r>
       <r>     0.4766    12.0413   243.4792 </r>
       <r>     0.5571    10.8080   244.3493 </r>
       <r>     0.6376     6.0175   244.8337 </r>
       <r>     0.7181     3.4431   245.1109 </r>
       <r>     0.7986     0.3016   245.1352 </r>
       <r>     0.8791     0.5958   245.1832 </r>
       <r>     0.9596     0.1049   245.1916 </r>
       <r>     1.0401     1.2398   245.2914 </r>
       <r>     1.1207     7.8279   245.9216 </r>
       <r>     1.2012    10.8125   246.7920 </r>
       <r>     1.2817    12.9896   247.8377 </r>
       <r>     1.3622    14.4783   249.0033 </r>
       <r>     1.4427    10.7544   249.8690 </r>
       <r>     1.5232     2.1007   250.0381 </r>
       <r>     1.6037     0.5196   250.0800 </r>
       <r>     1.6842     3.2597   250.3424 </r>
       <r>     1.7647     5.2574   250.7656 </r>
       <r>     1.8452     7.0474   251.3330 </r>
       <r>     1.9257     6.7240   251.8743 </r>
       <r>     2.0062    12.4335   252.8752 </r>
       <r>     2.0867    17.1482   254.2557 </r>
       <r>     2.1672     7.5848   254.8663 </r>
       <r>     2.2477     2.7026   255.0839 </r>
       <r>     2.3282     6.8473   255.6351 </r>
       <r>     2.4087    11.2012   256.5368 </r>
       <r>     2.4892     9.4851   257.3004 </r>
       <r>     2.5697     8.4291   257.9790 </r>
       <r>     2.6502     8.5667   258.6686 </r>
       <r>     2.7307     8.6408   259.3642 </r>
       <r>     2.8112    10.8908   260.2410 </r>
       <r>     2.8917     7.9819   260.8835 </r>
       <r>     2.9722     7.6631   261.5004 </r>
       <r>     3.0527    12.8179   262.5323 </r>
       <r>     3.1332     3.2872   262.7970 </r>
       <r>     3.2137     5.2072   263.2162 </r>
       <r>     3.2942    13.2952   264.2865 </r>
       <r>     3.3747     7.9754   264.9285 </r>
       <r>     3.4552     4.6280   265.3011 </r>
       <r>     3.5357     3.2577   265.5633 </r>
       <r>     3.6163     6.6813   266.1012 </r>
       <r>     3.6968    15.3784   267.3392 </r>
       <r>     3.7773    10.6827   268.1992 </r>
       <r>     3.8578     2.7274   268.4188 </r>
       <r>     3.9383     6.4858   268.9409 </r>
       <r>     4.0188     7.1996   269.5205 </r>
       <r>     4.0993     4.3776   269.8729 </r>
       <r>     4.1798     4.1095   270.2037 </r>
       <r>     4.2603     0.3986   270.2358 </r>
       <r>     4.3408    -0.3515   270.2075 </r>
       <r>     4.4213     1.1846   270.3029 </r>
       <r>     4.5018     3.1102   270.5533 </r>
       <r>     4.5823     5.6912   271.0114 </r>
       <r>     4.6628    12.4539   272.0140 </r>
       <r>     4.7433    14.4792   273.1796 </r>
       <r>     4.8238    10.2245   274.0027 </r>
       <r>     4.9043     3.8823   274.3153 </r>
       <r>     4.9848    10.7647   275.1818 </r>
       <r>     5.0653    21.3243   276.8985 </r>
       <r>     5.1458    11.4251   277.8183 </r>
       <r>     5.2263     2.9092   278.0525 </r>
       <r>     5.3068     5.9936   278.5350 </r>
       <r>     5.3873     6.7689   279.0799 </r>
       <r>     5.4678     5.3065   279.5071 </r>
       <r>     5.5483     4.8306   279.8960 </r>
       <r>     5.6288     4.9578   280.2951 </r>
       <r>     5.7093    13.6061   281.3904 </r>
       <r>     5.7898    11.7379   282.3354 </r>
       <r>     5.8703    10.2724   283.1623 </r>
       <r>     5.9508    16.0817   284.4570 </r>
       <r>     6.0313     9.7358   285.2407 </r>
       <r>     6.1119     5.0677   285.6487 </r>
       <r>     6.1924     9.7136   286.4307 </r>
       <r>     6.2729    12.9258   287.4712 </r>
       <r>     6.3534     6.8346   288.0214 </r>
       <r>     6.4339     5.5633   288.4693 </r>
       <r>     6.5144    19.4815   290.0376 </r>
       <r>     6.5949    17.8715   291.4763 </r>
       <r>     6.6754    11.9518   292.4385 </r>
       <r>     6.7559     5.0962   292.8488 </r>
       <r>     6.8364     3.3881   293.1215 </r>
       <r>     6.9169    15.9055   294.4020 </r>
       <r>     6.9974    20.0098   296.0128 </r>
       <r>     7.0779    19.0298   297.5448 </r>
       <r>     7.1584    11.2499   298.4504 </r>
       <r>     7.2389    10.0297   299.2578 </r>
       <r>     7.3194    14.6385   300.4363 </r>
       <r>     7.3999    13.7608   301.5441 </r>
       <r>     7.4804     4.6245   301.9164 </r>
       <r>     7.5609     5.5518   302.3633 </r>
       <r>     7.6414    10.5660   303.2139 </r>
       <r>     7.7219    10.2772   304.0412 </r>
       <r>     7.8024     8.8032   304.7499 </r>
       <r>     7.8829    10.8567   305.6239 </r>
       <r>     7.9634    19.5852   307.2006 </r>
       <r>     8.0439    17.9342   308.6444 </r>
       <r>     8.1244    24.6255   310.6268 </r>
       <r>     8.2049    21.2611   312.3384 </r>
       <r>     8.2854    12.5928   313.3521 </r>
       <r>     8.3659    10.8078   314.2222 </r>
       <r>     8.4464    20.4393   315.8676 </r>
       <r>     8.5269    19.3924   317.4288 </r>
       <r>     8.6075     8.8172   318.1386 </r>
       <r>     8.6880     9.3274   318.8895 </r>
       <r>     8.7685    10.6163   319.7441 </r>
       <r>     8.8490    10.5446   320.5930 </r>
       <r>     8.9295    12.0257   321.5611 </r>
       <r>     9.0100     7.4508   322.1609 </r>
       <r>     9.0905    10.9759   323.0445 </r>
       <r>     9.1710    14.1053   324.1800 </r>
       <r>     9.2515     9.4917   324.9442 </r>
       <r>     9.3320     1.1920   325.0401 </r>
       <r>     9.4125    -0.4418   325.0045 </r>
       <r>     9.4930    -0.0551   325.0001 </r>
       <r>     9.5735    -0.0013   325.0000 </r>
       <r>     9.6540    -0.0000   325.0000 </r>
       <r>     9.7345    -0.0000   325.0000 </r>
       <r>     9.8150    -0.0000   325.0000 </r>
       <r>     9.8955     0.0000   325.0000 </r>
       <r>     9.9760     0.0000   325.0000 </r>
       <r>    10.0565     0.0000   325.0000 </r>
       <r>    10.1370     0.0000   325.0000 </r>
       <r>    10.2175     0.0000   325.0000 </r>
       <r>    10.2980     0.0000   325.0000 </r>
      </set>
     </set>
    </array>
   </total>
  </dos>
 </calculation>
 <structure name="finalpos" >
  <crystal>
   <varray name="basis" >
    <v>       8.93075865       0.00000000       0.00000000 </v>
    <v>       4.46537932       7.73426386       0.00000000 </v>
    <v>       0.00000000       0.00000000      24.72257853 </v>
   </varray>
   <i name="volume">   1707.65880700 </i>
   <varray name="rec_basis" >
    <v>       0.11197257      -0.06464739       0.00000000 </v>
    <v>       0.00000000       0.12929479       0.00000000 </v>
    <v>       0.00000000       0.00000000       0.04044886 </v>
   </varray>
  </crystal>
  <varray name="positions" >
   <v>       0.88888889       0.22222222       0.30336641 </v>
   <v>       0.22222222       0.22222222       0.30336641 </v>
   <v>       0.55555556       0.22222222       0.30336641 </v>
   <v>       0.88888889       0.55555556       0.30336641 </v>
   <v>       0.22222222       0.55555556       0.30336641 </v>
   <v>       0.55555556       0.55555556       0.30336641 </v>
   <v>       0.88888889       0.88888889       0.30336641 </v>
   <v>       0.22222222       0.88888889       0.30336641 </v>
   <v>       0.55555556       0.88888889       0.30336641 </v>
   <v>       0.00000000       0.00000000       0.40168321 </v>
   <v>       0.33333333       0.00000000       0.40168321 </v>
   <v>       0.66666667       0.00000000       0.40168321 </v>
   <v>       0.00000000       0.33333333       0.40168321 </v>
   <v>       0.33333333       0.33333333       0.40168321 </v>
   <v>       0.66666667       0.33333333       0.40168321 </v>
   <v>       0.00000000       0.66666667       0.40168321 </v>
   <v>       0.33333333       0.66666667       0.40168321 </v>
   <v>       0.66666667       0.66666667       0.40168321 </v>
   <v>       0.11076472       0.11076472       0.50051317 </v>
   <v>       0.44466825       0.11066351       0.49968579 </v>
   <v>       0.77847057       0.11076472       0.50051317 </v>
   <v>       0.11066351       0.44466825       0.49968579 </v>
   <v>       0.44466825       0.44466825       0.49968579 </v>
   <v>       0.77796497       0.44407006       0.50032439 </v>
   <v>       0.11076472       0.77847057       0.50051317 </v>
   <v>       0.44407006       0.77796497       0.50032439 </v>
   <v>       0.77796497       0.77796497       0.50032439 </v>
   <v>       0.88851917       0.22296166       0.59904240 </v>
   <v>       0.22328064       0.22328064       0.59795887 </v>
   <v>       0.55343872       0.22328064       0.59795887 </v>
   <v>       0.88925243       0.55537379       0.59834622 </v>
   <v>       0.22328064       0.55343872       0.59795887 </v>
   <v>       0.55537379       0.55537379       0.59834622 </v>
   <v>       0.88851917       0.88851917       0.59904240 </v>
   <v>       0.22296166       0.88851917       0.59904240 </v>
   <v>       0.55537379       0.88925243       0.59834622 </v>
   <v>      -0.00000000      -0.00000000       0.69694807 </v>
   <v>       0.33319878       0.00102151       0.69703043 </v>
   <v>       0.66577972       0.00102151       0.69703043 </v>
   <v>       0.00102151       0.33319878       0.69703043 </v>
   <v>       0.66577972       0.33319878       0.69703043 </v>
   <v>       0.00102151       0.66577972       0.69703043 </v>
   <v>       0.33319878       0.66577972       0.69703043 </v>
   <v>       0.66666667       0.66666667       0.69631275 </v>
   <v>       0.33333333       0.33333333       0.69633405 </v>
   <v>       0.33333333       0.33333333       0.76966823 </v>
  </varray>
  <varray name="selective"  type="logical" >
   <v type="logical" >  F  F  F </v>
   <v type="logical" >  F  F  F </v>
   <v type="logical" >  F  F  F </v>
   <v type="logical" >  F  F  F </v>
   <v type="logical" >  F  F  F </v>
   <v type="logical" >  F  F  F </v>
   <v type="logical" >  F  F  F </v>
   <v type="logical" >  F  F  F </v>
   <v type="logical" >  F  F  F </v>
   <v type="logical" >  F  F  F </v>
   <v type="logical" >  F  F  F </v>
   <v type="logical" >  F  F  F </v>
   <v type="logical" >  F  F  F </v>
   <v type="logical" >  F  F  F </v>
   <v type="logical" >  F  F  F </v>
   <v type="logical" >  F  F  F </v>
   <v type="logical" >  F  F  F </v>
   <v type="logical" >  F  F  F </v>
   <v type="logical" >  T  T  T </v>
   <v type="logical" >  T  T  T </v>
   <v type="logical" >  T  T  T </v>
   <v type="logical" >  T  T  T </v>
   <v type="logical" >  T  T  T </v>
   <v type="logical" >  T  T  T </v>
   <v type="logical" >  T  T  T </v>
   <v type="logical" >  T  T  T </v>
   <v type="logical" >  T  T  T </v>
   <v type="logical" >  T  T  T </v>
   <v type="logical" >  T  T  T </v>
   <v type="logical" >  T  T  T </v>
   <v type="logical" >  T  T  T </v>
   <v type="logical" >  T  T  T </v>
   <v type="logical" >  T  T  T </v>
   <v type="logical" >  T  T  T </v>
   <v type="logical" >  T  T  T </v>
   <v type="logical" >  T  T  T </v>
   <v type="logical" >  T  T  T </v>
   <v type="logical" >  T  T  T </v>
   <v type="logical" >  T  T  T </v>
   <v type="logical" >  T  T  T </v>
   <v type="logical" >  T  T  T </v>
   <v type="logical" >  T  T  T </v>
   <v type="logical" >  T  T  T </v>
   <v type="logical" >  T  T  T </v>
   <v type="logical" >  T  T  T </v>
   <v type="logical" >  T  T  T </v>
  </varray>
  <nose>
   <v>      -3.00000000       0.00000000       0.00010000       0.00010000 </v>
  </nose>
 </structure>
</modeling>
