  MPI-parallelism will be employed.
------------------------------------------------------------
          Invoking FHI-aims ...
          Version 161122
          Compiled on 2016/12/20 at 12:56:21 on host mother.

          When using FHI-aims, please cite the following reference:

          Volker Blum, Ralf Gehrke, Felix Hanke, Paula Havu,
          Ville Havu, Xinguo Ren, Karsten Reuter, and Matthias Scheffler,
          'Ab Initio Molecular Simulations with Numeric Atom-Centered Orbitals',
          Computer Physics Communications 180, 2175-2196 (2009)

          For any questions about FHI-aims, please visit the aimsclub website
          with its forums and wiki. Contributions to both the forums and the
          wiki are warmly encouraged - they are for you, and everyone is welcome there.

------------------------------------------------------------



  Date     :  20180621, Time     :  162349.244
  Time zero on CPU 1             :   0.791640000000000E-01  s.
  Internal wall clock time zero  :           298830229.244  s.

  FHI-aims created a unique identifier for this run for later identification
  aims_uuid : 5FC3DB00-52EA-459C-A64C-F6559A005C57

  Using       32 parallel tasks.
  Task        0 on host zr reporting.
  Task        1 on host zr reporting.
  Task        2 on host zr reporting.
  Task        3 on host zr reporting.
  Task        4 on host zr reporting.
  Task        5 on host zr reporting.
  Task        6 on host zr reporting.
  Task        7 on host zr reporting.
  Task        8 on host zr reporting.
  Task        9 on host zr reporting.
  Task       10 on host zr reporting.
  Task       11 on host zr reporting.
  Task       12 on host zr reporting.
  Task       13 on host zr reporting.
  Task       14 on host zr reporting.
  Task       15 on host zr reporting.
  Task       16 on host pt reporting.
  Task       17 on host pt reporting.
  Task       18 on host pt reporting.
  Task       19 on host pt reporting.
  Task       20 on host pt reporting.
  Task       21 on host pt reporting.
  Task       22 on host pt reporting.
  Task       23 on host pt reporting.
  Task       24 on host pt reporting.
  Task       25 on host pt reporting.
  Task       26 on host pt reporting.
  Task       27 on host pt reporting.
  Task       28 on host pt reporting.
  Task       29 on host pt reporting.
  Task       30 on host pt reporting.
  Task       31 on host pt reporting.

  Performing system and environment tests:
  | Environment variable OMP_NUM_THREADS correctly set to 1.
  | Stacksize not measured: no C compiler
  | Checking for scalapack...
  | Testing pdtran()...
  | All pdtran() tests passed.

  Obtaining array dimensions for all initial allocations:
  
  -----------------------------------------------------------------------
  Parsing control.in (first pass over file, find array dimensions only).
  The contents of control.in will be repeated verbatim below
  unless switched off by setting 'verbatim_writeout .false.' .
  in the first line of control.in .
  -----------------------------------------------------------------------
  
  xc pbe
    charge 0.0
    spin none
    vdw_correction_hirshfeld
    relativistic  atomic_zora scalar
    exx_band_structure_version 1
    include_spin_orbit non_self_consistent
  #####  Convergence settings #####
   charge_mix_param  0.2
   n_max_pulay        8
   sc_accuracy_eev  1e-2
   sc_accuracy_etot 1e-5
   sc_accuracy_rho  1e-4
   sc_iter_limit     100
  ###############################
  k_grid  6 6 6
  ##################################
  species        N
  #     global species definitions
      nucleus             7
      mass                14.0067
  #
      l_hartree           6
  #
      cut_pot             4.0  2.0  1.0
      basis_dep_cutoff    1e-4
  #
      radial_base         35 7.0
      radial_multiplier   2
      angular_grids       specified
        division   0.1841   50
        division   0.3514  110
        division   0.5126  194
        division   0.6292  302
        division   0.6939  434
  #      division   0.7396  590
  #      division   0.7632  770
  #      division   0.8122  974
  #      division   1.1604 1202
  #      outer_grid  974
        outer_grid  434
  ################################################################################
  #
  #  Definition of "minimal" basis
  #
  ################################################################################
  #     valence basis states
      valence      2  s   2.
      valence      2  p   3.
  #     ion occupancy
      ion_occ      2  s   1.
      ion_occ      2  p   2.
  ################################################################################
  #
  #  Suggested additional basis functions. For production calculations,
  #  uncomment them one after another (the most important basis functions are
  #  listed first).
  #
  #  Constructed for dimers: 1.0 A, 1.1 A, 1.5 A, 2.0 A, 3.0 A
  #
  ################################################################################
  #  "First tier" - improvements: -1193.42 meV to -220.60 meV
       hydro 2 p 1.8
       hydro 3 d 6.8
       hydro 3 s 5.8
  #  "Second tier" - improvements: -80.21 meV to -6.86 meV
      # hydro 4 f 10.8
      # hydro 3 p 5.8
      # hydro 1 s 0.8
      # hydro 5 g 16
      # hydro 3 d 4.9
  #  "Third tier" - improvements: -4.29 meV to -0.53 meV
  #     hydro 3 s 16
  #     ionic 2 p auto
  #     hydro 3 d 6.6
  #     hydro 4 f 11.6
  #  "Fourth tier" - improvements: -0.75 meV to -0.25 meV
  species        C
  #     global species definitions
      nucleus             6
      mass                12.0107
  #
      l_hartree           6
  #
      cut_pot             4.0  2.0  1.0
      basis_dep_cutoff    1e-4
  #
      radial_base         34 7.0
      radial_multiplier   2
      angular_grids specified
        division   0.2187   50
        division   0.4416  110
        division   0.6335  194
        division   0.7727  302
        division   0.8772  434
  #      division   0.9334  590
  #      division   0.9924  770
  #      division   1.0230  974
  #      division   1.5020 1202
  #     outer_grid  974
        outer_grid  434
  ################################################################################
  #
  #  Definition of "minimal" basis
  #
  ################################################################################
  #     valence basis states
      valence      2  s   2.
      valence      2  p   2.
  #     ion occupancy
      ion_occ      2  s   1.
      ion_occ      2  p   1.
  ################################################################################
  #
  #  Suggested additional basis functions. For production calculations,
  #  uncomment them one after another (the most important basis functions are
  #  listed first).
  #
  #  Constructed for dimers: 1.0 A, 1.25 A, 1.5 A, 2.0 A, 3.0 A
  #
  ################################################################################
  #  "First tier" - improvements: -1214.57 meV to -155.61 meV
       hydro 2 p 1.7
       hydro 3 d 6
       hydro 2 s 4.9
  #  "Second tier" - improvements: -67.75 meV to -5.23 meV
      # hydro 4 f 9.8
      # hydro 3 p 5.2
      # hydro 3 s 4.3
      # hydro 5 g 14.4
      # hydro 3 d 6.2
  #  "Third tier" - improvements: -2.43 meV to -0.60 meV
  #     hydro 2 p 5.6
  #     hydro 2 s 1.4
  #     hydro 3 d 4.9
  #     hydro 4 f 11.
  ####Method #####################
  
  
  species          I
  
  #     global species definitions
      nucleus        53
      mass           126.90447
  #
      l_hartree      6
  #
      cut_pot        4.0  2.0  1.0
      basis_dep_cutoff    1e-4
  #
      radial_base    64  7.0
      radial_multiplier  2
      angular_grids specified
        division   0.1103  110
        division   0.1515  194
        division   0.9554  302
  #      division   1.1196  590
  #      division   1.1922  770
  #      division   6.1948  974
  #      outer_grid  974
        outer_grid  434
  ################################################################################
  #
  #  Definition of "minimal" basis
  #
  ################################################################################
  #     valence basis states
      valence      5  s   2.
      valence      5  p   5.
      valence      4  d  10.
  #     ion occupancy
      ion_occ      5  s   1.
      ion_occ      5  p   4.
      ion_occ      4  d  10.
  ################################################################################
  #
  #  Suggested additional basis functions. For production calculations,
  #  uncomment them one after another (the most important basis functions are
  #  listed first).
  #
  #  Constructed for dimers: 2.22, 2.65, 3.25, 4.25 Ang
  #
  ################################################################################
  #  "First tier" - improvements: -270.74 meV to -21.24 meV
       hydro 3 d 4
       hydro 4 f 6.4
       hydro 2 p 1.6
       ionic 5 s auto
  #  "Second tier" - improvements: -16.39 meV to -0.39 meV
      # hydro 5 g 9.4
      # hydro 4 f 18.4
      # hydro 6 h 12.4
      # hydro 4 p 4.5
      # hydro 3 d 4.2
      # hydro 3 s 3.0
  #  "Third tier" - max. impr. -0.76 meV, min. impr. -0.06 meV
  #     hydro 5 f 15.6
  #     hydro 5 g 12
  #     hydro 5 d 16
  #     hydro 4 f 42
  species        H
  #     global species definitions
      nucleus             1
      mass                1.00794
  #
      l_hartree           6
  #
      cut_pot             4.0  2.0  1.0
      basis_dep_cutoff    1e-4
  #
      radial_base         24 7.0
      radial_multiplier   2
      angular_grids       specified
        division   0.1930   50
        division   0.3175  110
        division   0.4293  194
        division   0.5066  302
        division   0.5626  434
  #      division   0.5922  590
  #      division   0.6227  974
  #      division   0.6868 1202
  #      outer_grid  770
        outer_grid  434
  ################################################################################
  #
  #  Definition of "minimal" basis
  #
  ################################################################################
  #     valence basis states
      valence      1  s   1.
  #     ion occupancy
      ion_occ      1  s   0.5
  ################################################################################
  #
  #  Suggested additional basis functions. For production calculations,
  #  uncomment them one after another (the most important basis functions are
  #  listed first).
  #
  #  Basis constructed for dimers: 0.5 A, 0.7 A, 1.0 A, 1.5 A, 2.5 A
  #
  ################################################################################
  #  "First tier" - improvements: -1014.90 meV to -62.69 meV
       hydro 2 s 2.1
       hydro 2 p 3.5
  #  "Second tier" - improvements: -12.89 meV to -1.83 meV
      # hydro 1 s 0.85
      # hydro 2 p 3.7
      # hydro 2 s 1.2
      # hydro 3 d 7
  #  "Third tier" - improvements: -0.25 meV to -0.12 meV
  #     hydro 4 f 11.2
  #     hydro 3 p 4.8
  #     hydro 4 d 9
  #     hydro 3 s 3.2
  
  
  ###############################################################################
  #
  #  FHI-aims code project
  # Volker Blum, Fritz Haber Institute Berlin, 2009
  #
  #  Suggested "tight" defaults for Pb atom (to be pasted into control.in file)
  #
  ################################################################################
    species        Pb
  #     global species definitions
      nucleus             82
      mass                207.2
  #
      l_hartree           6
  #
      cut_pot             4.0  2.0  1.0
      basis_dep_cutoff    1e-4
  #
      radial_base         74 7.0
      radial_multiplier   2
      angular_grids specified
        division   0.1064  110
        division   0.1579  194
        division   0.2150  302
        division   1.0164  434
  #      division   1.1544  590
  #      division   1.1970  770
  #      division   7.7779  974
  #      outer_grid  974
        outer_grid  434
   ################################################################################
  #
  #  Definition of "minimal" basis
  #
  ################################################################################
  #     valence basis states
      valence      6  s   2.
      valence      6  p   2.
      valence      5  d  10.
      valence      4  f  14.
  #     ion occupancy
      ion_occ     6  s    1.
      ion_occ     6  p    1.
      ion_occ     5  d   10.
      ion_occ     4  f   14.
  ################################################################################
  #
  #  Suggested additional basis functions. For production calculations,
  #  uncomment them one after another (the most important basis functions are
  #  listed first).
  #
  #  Constructed for dimers: 2.225, 2.50, 2.88, 3.625, 4.50
  #
  ################################################################################
  #  "First tier" - max. impr. -156.54 meV, min. impr. -14.49 meV
       hydro 3 p 2.3
       hydro 4 f 7.6
       hydro 3 d 3.5
       hydro 5 g 9.8
       hydro 3 s 3.2
  #  "Second tier" - max. impr. -4.38  meV, min. impr. -0.30 meV
      # hydro 6 h 12.8
      # hydro 3 d 2.4
      # hydro 5 f 7.2
      # hydro 5 f 14.8
      # hydro 4 p 5.4
      # ionic 6 s auto
  #  "Third tier" - max. impr. -0.86 meV, min. impr. -0.16 meV
  #     hydro 5 p 14.4
  #     hydro 5 g 8.2
  #     hydro 4 d 4.6
  #     hydro 6 h 12.4
  #     hydro 6 d 12.4
  #     hydro 4 s 4
  #     hydro 5 g 32.8
  #     hydro 5 f 9.4
  #  Further functions: -0.10 meV and below
  #     hydro 5 f 17.6
  #     hydro 7 p 19.6
  ################################################################################
  #
  #  FHI-aims code project
  # Volker Blum, Fritz Haber Institute Berlin, 2009
  #
  #  Suggested "tight" defaults for Ge atom (to be pasted into control.in file)
  #
  ################################################################################
    species        Ge
  #     global species definitions
      nucleus             32
      mass                72.64
  #
      l_hartree           6
  #
      cut_pot             4.0          2.0  1.0
      basis_dep_cutoff    1e-4
  #
      radial_base         54 7.0
      radial_multiplier   2
      angular_grids       specified
        division   0.0947  110
        division   0.1314  194
        division   0.7746  302
        division   0.8710  434
  #      division   0.9770  590
  #      division   1.1356  770
  #      division   2.6430  974
  #      outer_grid  974
        outer_grid  434
  ################################################################################
  #
  #  Definition of "minimal" basis
  #
  ################################################################################
  #     valence basis states
      valence      4  s   2.
      valence      4  p   2.
      valence      3  d  10.
  #     ion occupancy
      ion_occ      4  s   1.
      ion_occ      4  p   1.
      ion_occ      3  d  10.
  ################################################################################
  #
  #  Suggested additional basis functions. For production calculations,
  #  uncomment them one after another (the most important basis functions are
  #  listed first).
  #
  #  Constructed for dimers: 1.80 A, 2.00 A, 2.35 A, 3.00 A, 4.00 A
  #
  ################################################################################
  #  "First tier" - improvements: -329.04 meV to -37.61 meV
       hydro 2 p 1.4
       hydro 3 d 4.3
       hydro 4 f 7.4
       hydro 3 s 3.4
  #  "Second tier" - improvements: -13.91 meV to -1.23 meV
  #     hydro 5 g 10.8
  #     hydro 3 d 2.5
  #     hydro 3 p 3.3
  #     hydro 4 f 12
  #     hydro 6 h 15.6
  #     hydro 3 s 7.2
  #  "Third tier" - improvements: -1.47 meV to -0.40 meV
  #     hydro 3 d 5.8
  #     hydro 4 f 4.3
  #     hydro 5 g 11.6
  #     hydro 5 s 14.8
  #     hydro 4 p 3.9
  #  "Fourth tier"  -improvements: -0.39 meV to -0.11 meV
  #     hydro 4 f 23.2
  #     hydro 2 s 6.2
  #     hydro 5 d 9.8
  #     hydro 5 p 6
  #     hydro 6 h 14.8
  #  Further functions - -0.13 meV and below
  #     hydro 5 f 9.6
  ################################################################################
  #
  #  FHI-aims code project
  # Volker Blum, Fritz Haber Institute Berlin, 2010
  #
  #  Suggested "tight" defaults for Mn atom (to be pasted into control.in file)
  #
  #  2016/04/21, VB:
  #  Comment. Fe and Mn are outliers in the "Delta project",
  #  https://molmod.ugent.be/deltacodesdft . Not by much; in principle
  #  consistent with a reasonable designation "tight".
  #
  #  However, uncommenting the "d" and "p" function in tier2 of Fe picks up
  #  most of the missing total energy of a Fe bulk in DFT-GGA. This is similar
  #  to our "tight" defaults for Ni and Co.
  #
  #  These two basis functions can be enabled by hand below if needed. I am
  #  considering making them part of the default; what is keeping me is the
  #  question if this warrants the additional significant CPU time cost
  #  for every user expecting "tight".
  #
  ################################################################################
    species        Mn
  #     global species definitions
      nucleus             25
      mass                54.938045
  #
      l_hartree           6
  #
      cut_pot             4.0          2.0  1.0
      basis_dep_cutoff    1e-4
  #
      radial_base         50 7.0
      radial_multiplier   2
      angular_grids       specified
        division   0.2623   50
        division   0.5927  110
        division   0.9156  194
        division   1.1008  302
        division   1.2671  434
  #      division   1.5167  590
  #      division   1.7111  770
  #      division   1.8945  974
  #      division   2.7372 1202
        outer_grid  434
  ################################################################################
  #
  #  Definition of "minimal" basis
  #
  ################################################################################
  #     valence basis states
      valence      4  s   2.
      valence      3  p   6.
      valence      3  d   5.
  #     ion occupancy
      ion_occ      4  s   1.
      ion_occ      3  p   6.
      ion_occ      3  d   4.
  ################################################################################
  #
  #  Suggested additional basis functions. For production calculations,
  #  uncomment them one after another (the most important basis functions are
  #  listed first).
  #
  #  Constructed for dimers: 1.40 A, 1.60 A, 2.10 A, 2.75 A, 3.75 A
  #
  ################################################################################
  #  "First tier" - improvements: -466.21 meV to -15.27 meV
       hydro 4 f 9.6
       hydro 3 d 3.2
       hydro 2 p 2
       hydro 5 g 13.6
       hydro 3 s 3.3
  #  "Second tier" - improvements: -21.45 meV to -1.55 meV
  #     hydro 3 d 6
  #     hydro 6 h 19.2
  #     hydro 4 f 6.4
  #     hydro 4 f 17.2
  #     hydro 3 p 3.1
  #     hydro 3 d 6.2
  #     hydro 5 g 10.8
  #     hydro 3 s 3.8
  #  "Third tier" - improvements: -1.38 meV to -0.13 meV
  #     hydro 5 p 8.6   -1.38 meV
  #     hydro 6 h 16    -0.73 meV
  #     hydro 3 d 10.8  -0.43 meV
  #     hydro 5 f 6.8   # forced: -0.26 meV
  #     hydro 5 g 6.4   # forced: -0.21 meV
  #     hydro 5 s 9.8   # forced: -0.13 meV
  #  Further functions: improvements -0.32 meV and below
  #     hydro 3 p 19.6  # -0.32 meV
  #     hydro 5 f 28.4  # -0.20 meV
  #     hydro 4 f 26    # -0.08 meV
  #     hydro 3 p 3.5
  #     hydro 5 g 14.8
  #     hydro 5 s 9
  #     hydro 4 p 16.8
  #     hydro 6 h 18
  #     hydro 4 d 13.6
  ################################################################################
  #
  #  FHI-aims code project
  # Volker Blum, Fritz Haber Institute Berlin, 2009
  #
  #  Suggested "tight" defaults for Hg atom (to be pasted into control.in file)
  #
  ################################################################################
    species        Hg
  #     global species definitions
      nucleus             80
      mass                200.59
  #
      l_hartree           6
  #
      cut_pot             4.0  2.0  1.0
      basis_dep_cutoff    1e-4
  #
      radial_base         73 7.0
      radial_multiplier   2
      angular_grids specified
        division   0.3608   50
        division   0.8092  110
        division   1.1804  194
        division   1.3735  302
        division   1.6227  434
  #      division   1.6690  590
  #      division   2.3801  770
  #      division   2.4181  974
  #      division   2.8573 1202
  #      outer_grid  974
        outer_grid  434
   ################################################################################
  #
  #  Definition of "minimal" basis
  #
  ################################################################################
  #     valence basis states
      valence      6  s   2.
      valence      5  p   6.
      valence      5  d  10.
      valence      4  f  14.
  #     ion occupancy
      ion_occ     6  s   1.
      ion_occ     5  p   6.
      ion_occ     5  d   9.
      ion_occ     4  f   14.
  ################################################################################
  #
  #  Suggested additional basis functions. For production calculations,
  #  uncomment them one after another (the most important basis functions are
  #  listed first).
  #
  #  Constructed for dimers: 2.225, 2.50, 3.04, 4.00, 5.00 AA
  #
  ################################################################################
  #  "First tier" - max. impr. -228.38  meV, min. impr. -2.59 meV
       hydro 2 p 1.7
       hydro 4 f 7
       ionic 6 s auto
       hydro 5 g 9.6
       hydro 4 p 4.7
       hydro 4 d 7.8
  #  "Second tier" - max. impr. -2.80  meV, min. impr. -0.17 meV
  #     hydro 6 h 13.2
  #     hydro 5 f 12.8
  #     hydro 5 p 8
  #     hydro 5 s 6.8
  #     hydro 4 d 5
  #     hydro 5 g 16
  #  "Third tier" - max. impr. -0.15 meV, min. impr. -0.04 meV
  #     hydro 2 p 2.3
  #     hydro 4 f 6
  #     hydro 6 p 16.4
  #     hydro 4 f 13.2
  #     hydro 6 h 13.6
  #     hydro 5 g 9.8
  #     hydro 6 d 8
  #     hydro 1 s 10.8
  ################################################################################
  #
  #  FHI-aims code project
  # Volker Blum, Fritz Haber Institute Berlin, 2009
  #
  #  Suggested "tight" defaults for Mg atom (to be pasted into control.in file)
  #
  #  2016/03/22 : Included the tier2 f function by default. This is
  #               certainly necessary to warrant the designation
  #               "tight". Note that convergence tests by including
  #               further individual radial functions from tier2 may be
  #		a good idea anyway.
  #
  #  2016/03/28 : After further discussions, added full tier 2 to default basis
  #               set (this is "tight" after all). Note that, particularly for
  #               hybrid functionals, it may be possible to get excellent accuracy
  #               using just tier 1 + the f function from tier 2, at much reduced
  #               cost.
  #
  ################################################################################
    species        Mg
  #     global species definitions
      nucleus             12
      mass                24.3050
  #
      l_hartree           6
  #
      cut_pot             5.0          2.0  1.0
      basis_dep_cutoff    1e-4
  #
      radial_base         40 7.0
      radial_multiplier   2
      angular_grids       specified
        division   0.5421   50
        division   0.8500  110
        division   1.0736  194
        division   1.1879  302
        division   1.2806  434
  #      division   1.4147  590
  #      division   1.4867  770
  #      division   1.6422  974
  #      division   2.6134 1202
  #      outer_grid   974
        outer_grid  434
  ################################################################################
  #
  #  Definition of "minimal" basis
  #
  ################################################################################
  #     valence basis states
      valence      3  s   2.
      valence      2  p   6.
  #     ion occupancy
      ion_occ      2  s   2.
      ion_occ      2  p   6.
  ################################################################################
  #
  #  Suggested additional basis functions. For production calculations,
  #  uncomment them one after another (the most important basis functions are
  #  listed first).
  #
  #  Constructed for dimers: 2.125 A, 2.375 A, 2.875 A, 3.375 A, 4.5 A
  #
  ################################################################################
  #  "First tier" - improvements: -230.76 meV to -21.94 meV
       hydro 2 p 1.5
       ionic 3 d auto
       hydro 3 s 2.4
  #  "Second tier" - improvements: -5.43 meV to -1.64 meV
  #     hydro 4 f 4.3
  #     hydro 2 p 3.4
  #     hydro 4 s 11.2
  #     hydro 3 d 6.2
  #  "Third tier" - improvements: -0.92 meV to -0.22 meV
  #     hydro 2 s 0.6
  #     hydro 3 p 4.8
  #     hydro 4 f 7.4
  #     hydro 5 g 6.6
  #     hydro 2 p 1.6
  #     hydro 3 d 1.8
  #  "Fourth tier" - improvements: -0.09 meV to -0.05 meV
  #     hydro 4 p 0.45
  #     hydro 5 g 10.4
  #     hydro 2 s 12.4
  #     hydro 4 d 1.7
  ################################################################################
  #
  # For methods that use the localized form of the "resolution of identity" for
  # the two-electron Coulomb operator (RI_method LVL), particularly Hartree-Fock and
  # hybrid density functional calculations, the highest accuracy can be obtained by
  # uncommenting the line beginning with "for_aux"  below, thus adding an extra g radial
  # function to the construction of the product basis set for the expansion.
  # See Ref. New J. Phys. 17, 093020 (2015) for more information, particularly Figs. 1 and 6.
  #
  ################################################################################
  #
  # for_aux hydro 5 g 6.0
  ################################################################################
  #
  #  FHI-aims code project
  # Volker Blum, Fritz Haber Institute Berlin, 2009
  #
  #  Suggested "tight" defaults for Cl atom (to be pasted into control.in file)
  #
  #  Revised Jan 04, 2011, following tests (SiC) done by Lydia Nemec:
  #     d function of tier 2 now enabled by default.
  #
  ################################################################################
    species        Cl
  #     global species definitions
      nucleus             17
      mass                35.453
  #
      l_hartree           6
  #
      cut_pot             4.0          2.0  1.0
      basis_dep_cutoff    1e-4
  #
      radial_base         45 7.0
      radial_multiplier   2
      angular_grids       specified
        division   0.4412  110
        division   0.5489  194
        division   0.6734  302
        division   0.7794  434
  #      division   0.9402  590
  #      division   1.0779  770
  #      division   1.1792  974
  #      outer_grid  974
        outer_grid  434
  ################################################################################
  #
  #  Definition of "minimal" basis
  #
  ################################################################################
  #     valence basis states
      valence      3  s   2.
      valence      3  p   5.
  #     ion occupancy
      ion_occ      3  s   1.
      ion_occ      3  p   4.
  ################################################################################
  #
  #  Suggested additional basis functions. For production calculations,
  #  uncomment them one after another (the most important basis functions are
  #  listed first).
  #
  #  Constructed for dimers: 1.65 A, 2.0 A, 2.5 A, 3.25 A, 4.0 A
  #
  ################################################################################
  #  "First tier" - improvements: -429.57 meV to -15.03 meV
       ionic 3 d auto
       hydro 2 p 1.9
       hydro 4 f 7.4
       ionic 3 s auto
       hydro 5 g 10.4
  #  "Second tier" - improvements: -7.84 meV to -0.48 meV
  #     hydro 3 d 3.3
  #     hydro 5 f 9.8
  #     hydro 1 s 0.75
  #     hydro 5 g 11.2
  #     hydro 4 p 10.4
  #  "Third tier" - improvements: -1.00 meV to -0.12 meV
  #     hydro 4 d 12.8
  #     hydro 4 f 4.6
  #     hydro 4 d 10.8
  #     hydro 2 s 1.8
  #     hydro 3 p 3
  #  Further functions that fell out - improvements: -0.10 meV and below
  #     hydro 5 f 14.4
  #     hydro 4 s 12.8
  #     hydro 3 d 11.6
  #     hydro 4 s 4.1
  ################################################################################
  #
  # For methods that use the localized form of the "resolution of identity" for
  # the two-electron Coulomb operator (RI_method LVL), particularly Hartree-Fock and
  # hybrid density functional calculations, the highest accuracy can be obtained by
  # uncommenting the line beginning with "for_aux"  below, thus adding an extra g radial
  # function to the construction of the product basis set for the expansion.
  # See Ref. New J. Phys. 17, 093020 (2015) for more information, particularly Figs. 1 and 6.
  #
  ################################################################################
  #
  # for_aux hydro 5 g 6.0
  ################################################################################
  #
  #  FHI-aims code project
  # Volker Blum, Fritz Haber Institute Berlin, 2009
  #
  #  Suggested "tight" defaults for Br atom (to be pasted into control.in file)
  #
  ################################################################################
    species        Br
  #     global species definitions
      nucleus             35
      mass                79.904
  #
      l_hartree           6
  #
      cut_pot             4.0          2.0  1.0
      basis_dep_cutoff    1e-4
  #
      radial_base         56 7.0
      radial_multiplier   2
      angular_grids       specified
        division   0.0871  110
        division   0.1400  194
        division   0.7896  302
        division   0.8837  434
  #      division   0.9869  590
  #      division   1.0613  770
  #      division   2.6835  974
  #      outer_grid  974
        outer_grid  434
  ################################################################################
  #
  #  Definition of "minimal" basis
  #
  ################################################################################
  #     valence basis states
      valence      4  s   2.
      valence      4  p   5.
      valence      3  d  10.
  #     ion occupancy
      ion_occ      4  s   1.
      ion_occ      4  p   4.
      ion_occ      3  d  10.
  ################################################################################
  #
  #  Suggested additional basis functions. For production calculations,
  #  uncomment them one after another (the most important basis functions are
  #  listed first).
  #
  #  Constructed for dimers: 1.90 A, 2.25 A, 2.75 A, 3.25 A, 4.00 A
  #
  ################################################################################
  #  "First tier" - improvements: -247.24 meV to -20.97 meV
       hydro 3 d 4.6
       hydro 2 p 1.7
       hydro 4 f 7.6
       ionic 4 s auto
  #  "Second tier" - improvements: -9.01 meV to -0.73 meV
  #     hydro 5 g 10.4
  #     hydro 3 d 4.1
  #     hydro 6 h 14.8
  #     hydro 4 p 4.7
  #     hydro 1 s 0.7
  #     hydro 4 f 12.4
  #  "Third tier" - improvements: -0.26 meV and below
  #     hydro 5 f 14.8
  #     hydro 5 d 7.8
  #     hydro 5 g 14.4
  #     ionic 4 p auto
  #     hydro 3 s 3.2
  #  "Fourth tier" - improvements: -0.09 meV and below
  #     hydro 5 f 25.6
  #     hydro 5 d 11.2
  #     hydro 3 p 3.9
  #     hydro 6 h 16.8
  #     hydro 5 g 13.2
  #     hydro 5 s 5.4
  #####################################
  output band  0.0 0.0 0.0 0.5 0.0 0.0 50 Gamma X
  output band  0.5 0.0 0.0 0.5 0.5 0.0  50 X S
  output band  0.5 0.5 0.0 0.0 0.5 0.0  50  S Y
  output band  0.0 0.5 0.0  0.0 0.0 0.0 50 Y Gamma
  output band  0.0 0.0 0.0  0.0 0.0 0.5 50 Gamma Z
  output band  0.0 0.0 0.5  0.5 0.0 0.5 50 Z U
  output band  0.5 0.0 0.5 0.5 0.5 0.5 50 U R
  output band  0.5 0.5 0.5 0.0 0.5 0.5 50 R T
  output band  0.0 0.5 0.5 0.0 0.0 0.5 50 T Z
  output band  0.0 0.0 0.5 0.0 0.0 0.0 50 Z Gamma
  ################################################################
  
  
  ################################################################################
  #
  #  FHI-aims code project
  # Volker Blum, Fritz Haber Institute Berlin, 2009
  #
  #  Suggested "tight" defaults for Rb atom (to be pasted into control.in file)
  #
  #  The onset of the cutoff pot'l is set to 6 A by default, because the neutral
  #  Rb atom is a large atom. However, this is very expensive. The radius should be
  #  much smaller in real-world situations, where Rb will be ionic. Please check
  #  and reduce the cutoff radius explicitly.
  #
  #  2016/03/28 Added single d function from tier 2 to default settings; significant
  #             improvement in Delta project.
  #
  ################################################################################
    species          Rb
  #     global species definitions
      nucleus        37
      mass           85.4678
  #
      l_hartree      6
  #
      cut_pot        6.0  2.0  1.0
      basis_dep_cutoff    1e-4
  #
      radial_base    57  7.0
      radial_multiplier  2
      angular_grids specified
        division   0.1250  110
        division   0.9394  194
        division   1.1230  302
        division   1.2051  434
  #      division   1.2929  590
  #      division   1.3869  770
  #      division   7.0005  974
  #      outer_grid  974
        outer_grid  434
  ################################################################################
  #
  #  Definition of "minimal" basis
  #
  ################################################################################
  #     valence basis states
      valence      5  s   1.
      valence      4  p   6.
      valence      3  d  10.
  #     ion occupancy
      ion_occ      5  s   0.
      ion_occ      4  p   6.
      ion_occ      3  d  10.
  ################################################################################
  #
  #  Suggested additional basis functions. For production calculations,
  #  uncomment them one after another (the most important basis functions are
  #  listed first).
  #
  #  Constructed for dimers: 2.45, 3.00, 4.00, 5.00 A
  #
  ################################################################################
  #  "First tier" - improvements: -104.04 meV to -9.25 meV
       hydro 3 d 4.5
       hydro 3 p 2.5
       hydro 4 f 6.6
       hydro 4 s 2.9
  #  "Second tier" - improvements: -4.35 meV to -0.89 meV
  #     ionic 4 d auto
  #     hydro 5 g 9.2
  #     hydro 2 s 2.4
  #     hydro 5 p 8
  #  "Third tier" - improvements: -0.76 meV to -0.13 meV
  #     hydro 4 d 7.6
  #     hydro 4 f 4.2
  #     hydro 4 f 18
  #     hydro 6 h 12.8
  #     hydro 4 p 2.9
  #     hydro 1 s 0.4
  #  "Fourth tier" - improvements: -0.07 meV and lower.
  #     hydro 5 g 6.2
  #     hydro 2 s 1.1
  #     hydro 5 d 9.2
  ################################################################################
  #
  #  FHI-aims code project
  # Volker Blum, Fritz Haber Institute Berlin, 2009
  #
  #  Suggested "tight" defaults for K atom (to be pasted into control.in file)
  #
  #  The onset of the cutoff pot'l is set to 6 A by default, because the neutral
  #  K atom is a large atom. However, this is very expensive. The radius should be
  #  much smaller in real-world situations, where K will be ionic. Please check
  #  and reduce the cutoff radius explicitly.
  #
  ################################################################################
    species        K
  #     global species definitions
      nucleus             19
      mass                39.0983
  #
      l_hartree           6
  #
      cut_pot             6.0          2.0  1.0
      basis_dep_cutoff    1e-4
  #
      radial_base         46 7.0
      radial_multiplier   2
      angular_grids       specified
        division   0.5285  110
        division   0.7831  194
        division   0.9986  302
        division   1.0594  434
  #      division   1.1569  590
  #      division   1.2994  770
  #      division   1.4587  974
  #      outer_grid 974
        outer_grid  434
  ################################################################################
  #
  #  Definition of "minimal" basis
  #
  ################################################################################
  #     valence basis states
      valence      4  s   1.
      valence      3  p   6.
  #     ion occupancy
      ion_occ      3  s   2.
      ion_occ      3  p   6.
  ################################################################################
  #
  #  Suggested additional basis functions. For production calculations,
  #  uncomment them one after another (the most important basis functions are
  #  listed first).
  #
  #  Constructed for dimers: 2.5 A, 3.0 A, 3.875 A, 5.0 A
  #
  ################################################################################
  #  "First tier" - improvements: -43.02 meV to -8.16 meV
       ionic 3 d auto
       ionic 4 p auto
       hydro 4 s 3.1
       hydro 4 f 5.6
  #  "Second tier" - improvements: -2.10 meV to -0.40 meV
  #     hydro 4 d 4.4
  #     hydro 3 s 1.5
  #     hydro 5 g 8.2
  #     hydro 3 p 2.4
  #  "Third tier" - improvements: -0.37 meV to -0.09 meV
  #     hydro 1 s 1
  #     hydro 2 p 2.4
  #     hydro 6 h 11.6
  #     hydro 3 d 4.5
  #     hydro 5 f 9
  #  "Fourth tier" - improvements: -0.09 meV to -0.05 meV
  #     hydro 5 s 4
  #     hydro 4 d 6.6
  #     hydro 5 p 5.8
  ################################################################################
  #
  # For methods that use the localized form of the "resolution of identity" for
  # the two-electron Coulomb operator (RI_method LVL), particularly Hartree-Fock and
  # hybrid density functional calculations, the highest accuracy can be obtained by
  # uncommenting the line beginning with "for_aux"  below, thus adding an extra g radial
  # function to the construction of the product basis set for the expansion.
  # See Ref. New J. Phys. 17, 093020 (2015) for more information, particularly Figs. 1 and 6.
  #
  ################################################################################
  #
  # for_aux hydro 5 g 6.0
  
  -----------------------------------------------------------------------
  Completed first pass over input file control.in .
  -----------------------------------------------------------------------
  
  
  -----------------------------------------------------------------------
  Parsing geometry.in (first pass over file, find array dimensions only).
  The contents of geometry.in will be repeated verbatim below
  unless switched off by setting 'verbatim_writeout .false.' .
  in the first line of geometry.in .
  -----------------------------------------------------------------------
  
  #
  # This is the geometry file that corresponds to the current relaxation step.
  # If you do not want this file to be written, set the "write_restart_geometry" flag to .false.
  #  aims_uuid : 41EF6680-F396-4518-A819-9E26E2008CB5
  #
  lattice_vector      5.19344859      0.03563593     -0.36152428
  lattice_vector     -0.01899363      9.25208620      0.64794860
  lattice_vector      0.19461512      2.42657027      3.02689016
  atom       0.09212148      0.28391134     -0.34020666 Mg
  atom       2.68894623      0.30880308     -0.52143988 Br
  atom       0.28096061      0.06348945      2.33663843 Br
  atom       0.09815110      2.93229116      0.01309260 Br
  atom       2.68004684      4.91896849     -0.20507506 K
  #
  # What follows is the current estimated Hessian matrix constructed by the BFGS algorithm.
  # This is NOT the true Hessian matrix of the system.
  # If you do not want this information here, switch it off using the "hessian_to_restart_geometry" keyword.
  #
  trust_radius             0.1064860945
  hessian_block                1       1           6.467308           1.135941          -0.028634           1.135941           9.73728
  hessian_block                1       2          -4.432509          -0.728856          -0.093686          -0.743029          -0.29326
  hessian_block                1       3           0.241692           0.341409           0.117031           0.372208          -2.82883
  hessian_block                1       4          -0.316298          -0.202127          -0.358976          -0.365043          -4.14873
  hessian_block                1       5          -1.597797          -0.152547          -0.244242          -0.376032          -0.47306
  hessian_block                2       2           8.970319           0.761941          -1.163414           0.761941           3.15547
  hessian_block                2       3          -2.105280          -0.358400           0.167301           0.435016           0.04296
  hessian_block                2       4          -1.936275           0.368830           0.237114           0.141164          -0.87929
  hessian_block                2       5           0.354325           0.368447          -0.657227          -0.529284          -0.04852
  hessian_block                3       3           2.995226          -0.451045          -0.886505          -0.451045           6.28736
  hessian_block                3       4           0.019378          -0.103080          -0.315195           0.069933          -0.87952
  hessian_block                3       5          -0.862309          -0.018279           0.791654           0.420734          -0.66751
  hessian_block                4       4           4.129543          -1.392238          -0.630013          -1.392238           8.48052
  hessian_block                4       5          -1.265758           0.823534           0.102533           1.356238          -0.61672
  hessian_block                5       5           3.617858          -1.043107          -0.258774          -1.043107           3.80242
  hessian_block_lv             1       1           8.523078          -1.455128          -1.140662          -1.455128          10.31135
  hessian_block_lv             1       2           1.131280          -8.577820           0.422098           1.138778           2.85781
  hessian_block_lv             1       3          -0.940509          -1.664445          -8.242187           0.722936           2.42292
  hessian_block_lv             2       2          18.612883           1.819039           1.464082           1.819039           7.73362
  hessian_block_lv             2       3           1.271643          -1.142315           0.579557           2.259932           5.95871
  hessian_block_lv             3       3          12.092062          -2.001160           0.425962          -2.001160          11.68969
  hessian_block_lv_atom        1       1          -3.054373          -0.160474           0.340705          -1.493180          -0.93939
  hessian_block_lv_atom        1       2           3.847184           0.284330           0.379776          -0.414607           0.16475
  hessian_block_lv_atom        1       3          -1.303314          -0.787206           0.314259          -0.055323          -0.49299
  hessian_block_lv_atom        1       4          -0.704373          -0.388360          -0.805531           1.005965           0.64808
  hessian_block_lv_atom        1       5           0.606889           1.147792          -0.162463           0.976799           0.55754
  hessian_block_lv_atom        2       1           0.611641           2.183300          -1.399366          -0.106426          -1.05045
  hessian_block_lv_atom        2       2           0.268009          -0.435026          -0.202174           2.254855          -0.69861
  hessian_block_lv_atom        2       3          -0.381448          -0.770949           0.120359          -0.420563           0.35896
  hessian_block_lv_atom        2       4           0.056275           0.616039           1.435843          -0.015370           0.16700
  hessian_block_lv_atom        2       5          -0.655685          -1.857075           0.030892          -1.682119           1.21687
  hessian_block_lv_atom        3       1           0.624182           2.178975          -1.471137          -0.762712          -0.37308
  hessian_block_lv_atom        3       2          -0.547574          -0.636578           1.156586          -0.429085          -0.13832
  hessian_block_lv_atom        3       3           1.215350          -1.050963           0.144272          -0.099637          -0.35635
  hessian_block_lv_atom        3       4          -1.056890          -0.019369          -0.079973           1.834159           0.53607
  hessian_block_lv_atom        3       5          -0.272148          -0.865186           0.451161          -0.469844           0.34541
  
  -----------------------------------------------------------------------
  Completed first pass over input file geometry.in .
  -----------------------------------------------------------------------
  

  Basic array size parameters:
  | Number of species                 :       13
  | Number of atoms                   :        5
  | Number of lattice vectors         :        3
  | Max. basis fn. angular momentum   :        4
  | Max. atomic/ionic basis occupied n:        6
  | Max. number of basis fn. types    :        3
  | Max. radial fns per species/type  :       15
  | Max. logarithmic grid size        :     1491
  | Max. radial integration grid size :      149
  | Max. angular integration grid size:      434
  | Max. angular grid division number :        8
  | Radial grid for Hartree potential :     1491
  | Number of spin channels           :        1

------------------------------------------------------------
          Reading file control.in.
------------------------------------------------------------
  XC: Using PBE gradient-corrected functionals.
  Charge =   0.000000E+00: Neutral system requested explicitly.
  Spin treatment: No spin polarisation.
  Scalar relativistic treatment of kinetic energy: on-site free-atom approximation to ZORA.
  Calculating non-self-consistent perturbative spin-orbit coupling after scf-cycle
  Charge density mixing - mixing parameter:     0.2000
  Pulay mixing - number of memorized iterations:    8
  Convergence accuracy of sum of eigenvalues:  0.1000E-01
  Convergence accuracy of total energy:  0.1000E-04
  Convergence accuracy of self-consistent charge density:  0.1000E-03
  Maximum number of s.-c. iterations  :   100
  Found k-point grid:         6         6         6
 
  Reading configuration options for species N                   .
  | Found nuclear charge :   7.0000
  | Found atomic mass :    14.0067000000000      amu
  | Found l_max for Hartree potential  :   6
  | Found cutoff potl. onset [A], width [A], scale factor :    4.00000    2.00000    1.00000
  | Threshold for basis-dependent cutoff potential is   0.100000E-03
  | Found data for basic radial integration grid :    35 points, outermost radius =    7.000 A
  | Found multiplier for basic radial grid :   2
  | Found angular grid specification: user-specified.
  | Specified grid contains     6 separate shells.
  | Check grid settings after all constraints further below.
  | Found free-atom valence shell :  2 s   2.000
  | Found free-atom valence shell :  2 p   3.000
  | Found free-ion valence shell :  2 s   1.000
  | Found free-ion valence shell :  2 p   2.000
  | Found hydrogenic basis function :  2 p   1.800
  | Found hydrogenic basis function :  3 d   6.800
  | Found hydrogenic basis function :  3 s   5.800
  Species N                   : Missing cutoff potential type.
  Defaulting to exp(1/x)/(1-x)^2 type cutoff potential.
  Species N : No 'logarithmic' tag. Using default grid for free atom:
  | Default logarithmic grid data [bohr] : 0.1000E-03 0.1000E+03 0.1012E+01
  Species N : On-site basis accuracy parameter (for Gram-Schmidt orthonormalisation) not specified.
  Using default value basis_acc =  0.1000000E-03.
  Species N                   : Using default innermost maximum threshold i_radial=  2 for radial functions.
  Species N                   : Default cutoff onset for free atom density etc. : 0.40000000E+01 AA.
  Species N                   : Basic radial grid will be enhanced according to radial_multiplier =   2, to contain    71 grid points.
 
  Reading configuration options for species C                   .
  | Found nuclear charge :   6.0000
  | Found atomic mass :    12.0107000000000      amu
  | Found l_max for Hartree potential  :   6
  | Found cutoff potl. onset [A], width [A], scale factor :    4.00000    2.00000    1.00000
  | Threshold for basis-dependent cutoff potential is   0.100000E-03
  | Found data for basic radial integration grid :    34 points, outermost radius =    7.000 A
  | Found multiplier for basic radial grid :   2
  | Found angular grid specification: user-specified.
  | Specified grid contains     6 separate shells.
  | Check grid settings after all constraints further below.
  | Found free-atom valence shell :  2 s   2.000
  | Found free-atom valence shell :  2 p   2.000
  | Found free-ion valence shell :  2 s   1.000
  | Found free-ion valence shell :  2 p   1.000
  | Found hydrogenic basis function :  2 p   1.700
  | Found hydrogenic basis function :  3 d   6.000
  | Found hydrogenic basis function :  2 s   4.900
  Species C                   : Missing cutoff potential type.
  Defaulting to exp(1/x)/(1-x)^2 type cutoff potential.
  Species C : No 'logarithmic' tag. Using default grid for free atom:
  | Default logarithmic grid data [bohr] : 0.1000E-03 0.1000E+03 0.1012E+01
  Species C : On-site basis accuracy parameter (for Gram-Schmidt orthonormalisation) not specified.
  Using default value basis_acc =  0.1000000E-03.
  Species C                   : Using default innermost maximum threshold i_radial=  2 for radial functions.
  Species C                   : Default cutoff onset for free atom density etc. : 0.40000000E+01 AA.
  Species C                   : Basic radial grid will be enhanced according to radial_multiplier =   2, to contain    69 grid points.
 
  Reading configuration options for species I                   .
  | Found nuclear charge :  53.0000
  | Found atomic mass :    126.904470000000      amu
  | Found l_max for Hartree potential  :   6
  | Found cutoff potl. onset [A], width [A], scale factor :    4.00000    2.00000    1.00000
  | Threshold for basis-dependent cutoff potential is   0.100000E-03
  | Found data for basic radial integration grid :    64 points, outermost radius =    7.000 A
  | Found multiplier for basic radial grid :   2
  | Found angular grid specification: user-specified.
  | Specified grid contains     4 separate shells.
  | Check grid settings after all constraints further below.
  | Found free-atom valence shell :  5 s   2.000
  | Found free-atom valence shell :  5 p   5.000
  | Found free-atom valence shell :  4 d  10.000
  | Found free-ion valence shell :  5 s   1.000
  | Found free-ion valence shell :  5 p   4.000
  | Found free-ion valence shell :  4 d  10.000
  | Found hydrogenic basis function :  3 d   4.000
  | Found hydrogenic basis function :  4 f   6.400
  | Found hydrogenic basis function :  2 p   1.600
  | Found ionic basis function :  5 s , default cutoff radius.
  Species I                   : Missing cutoff potential type.
  Defaulting to exp(1/x)/(1-x)^2 type cutoff potential.
  Species I : No 'logarithmic' tag. Using default grid for free atom:
  | Default logarithmic grid data [bohr] : 0.1000E-03 0.1000E+03 0.1012E+01
  | Will include ionic basis functions of  2.0-fold positive I                    ion.
  Species I : On-site basis accuracy parameter (for Gram-Schmidt orthonormalisation) not specified.
  Using default value basis_acc =  0.1000000E-03.
  Species I                   : Using default innermost maximum threshold i_radial=  2 for radial functions.
  Species I                   : Default cutoff onset for free atom density etc. : 0.40000000E+01 AA.
  Species I                   : Basic radial grid will be enhanced according to radial_multiplier =   2, to contain   129 grid points.
 
  Reading configuration options for species H                   .
  | Found nuclear charge :   1.0000
  | Found atomic mass :    1.00794000000000      amu
  | Found l_max for Hartree potential  :   6
  | Found cutoff potl. onset [A], width [A], scale factor :    4.00000    2.00000    1.00000
  | Threshold for basis-dependent cutoff potential is   0.100000E-03
  | Found data for basic radial integration grid :    24 points, outermost radius =    7.000 A
  | Found multiplier for basic radial grid :   2
  | Found angular grid specification: user-specified.
  | Specified grid contains     6 separate shells.
  | Check grid settings after all constraints further below.
  | Found free-atom valence shell :  1 s   1.000
  | Found free-ion valence shell :  1 s   0.500
  | Found hydrogenic basis function :  2 s   2.100
  | Found hydrogenic basis function :  2 p   3.500
  Species H                   : Missing cutoff potential type.
  Defaulting to exp(1/x)/(1-x)^2 type cutoff potential.
  Species H : No 'logarithmic' tag. Using default grid for free atom:
  | Default logarithmic grid data [bohr] : 0.1000E-03 0.1000E+03 0.1012E+01
  Species H : On-site basis accuracy parameter (for Gram-Schmidt orthonormalisation) not specified.
  Using default value basis_acc =  0.1000000E-03.
  Species H                   : Using default innermost maximum threshold i_radial=  2 for radial functions.
  Species H                   : Default cutoff onset for free atom density etc. : 0.40000000E+01 AA.
  Species H                   : Basic radial grid will be enhanced according to radial_multiplier =   2, to contain    49 grid points.
 
  Reading configuration options for species Pb                  .
  | Found nuclear charge :  82.0000
  | Found atomic mass :    207.200000000000      amu
  | Found l_max for Hartree potential  :   6
  | Found cutoff potl. onset [A], width [A], scale factor :    4.00000    2.00000    1.00000
  | Threshold for basis-dependent cutoff potential is   0.100000E-03
  | Found data for basic radial integration grid :    74 points, outermost radius =    7.000 A
  | Found multiplier for basic radial grid :   2
  | Found angular grid specification: user-specified.
  | Specified grid contains     5 separate shells.
  | Check grid settings after all constraints further below.
  | Found free-atom valence shell :  6 s   2.000
  | Found free-atom valence shell :  6 p   2.000
  | Found free-atom valence shell :  5 d  10.000
  | Found free-atom valence shell :  4 f  14.000
  | Found free-ion valence shell :  6 s   1.000
  | Found free-ion valence shell :  6 p   1.000
  | Found free-ion valence shell :  5 d  10.000
  | Found free-ion valence shell :  4 f  14.000
  | Found hydrogenic basis function :  3 p   2.300
  | Found hydrogenic basis function :  4 f   7.600
  | Found hydrogenic basis function :  3 d   3.500
  | Found hydrogenic basis function :  5 g   9.800
  | Found hydrogenic basis function :  3 s   3.200
  Species Pb                  : Missing cutoff potential type.
  Defaulting to exp(1/x)/(1-x)^2 type cutoff potential.
  Species Pb: No 'logarithmic' tag. Using default grid for free atom:
  | Default logarithmic grid data [bohr] : 0.1000E-03 0.1000E+03 0.1012E+01
  Species Pb: On-site basis accuracy parameter (for Gram-Schmidt orthonormalisation) not specified.
  Using default value basis_acc =  0.1000000E-03.
  Species Pb                  : Using default innermost maximum threshold i_radial=  2 for radial functions.
  Species Pb                  : Default cutoff onset for free atom density etc. : 0.40000000E+01 AA.
  Species Pb                  : Basic radial grid will be enhanced according to radial_multiplier =   2, to contain   149 grid points.
 
  Reading configuration options for species Ge                  .
  | Found nuclear charge :  32.0000
  | Found atomic mass :    72.6400000000000      amu
  | Found l_max for Hartree potential  :   6
  | Found cutoff potl. onset [A], width [A], scale factor :    4.00000    2.00000    1.00000
  | Threshold for basis-dependent cutoff potential is   0.100000E-03
  | Found data for basic radial integration grid :    54 points, outermost radius =    7.000 A
  | Found multiplier for basic radial grid :   2
  | Found angular grid specification: user-specified.
  | Specified grid contains     5 separate shells.
  | Check grid settings after all constraints further below.
  | Found free-atom valence shell :  4 s   2.000
  | Found free-atom valence shell :  4 p   2.000
  | Found free-atom valence shell :  3 d  10.000
  | Found free-ion valence shell :  4 s   1.000
  | Found free-ion valence shell :  4 p   1.000
  | Found free-ion valence shell :  3 d  10.000
  | Found hydrogenic basis function :  2 p   1.400
  | Found hydrogenic basis function :  3 d   4.300
  | Found hydrogenic basis function :  4 f   7.400
  | Found hydrogenic basis function :  3 s   3.400
  Species Ge                  : Missing cutoff potential type.
  Defaulting to exp(1/x)/(1-x)^2 type cutoff potential.
  Species Ge: No 'logarithmic' tag. Using default grid for free atom:
  | Default logarithmic grid data [bohr] : 0.1000E-03 0.1000E+03 0.1012E+01
  Species Ge: On-site basis accuracy parameter (for Gram-Schmidt orthonormalisation) not specified.
  Using default value basis_acc =  0.1000000E-03.
  Species Ge                  : Using default innermost maximum threshold i_radial=  2 for radial functions.
  Species Ge                  : Default cutoff onset for free atom density etc. : 0.40000000E+01 AA.
  Species Ge                  : Basic radial grid will be enhanced according to radial_multiplier =   2, to contain   109 grid points.
 
  Reading configuration options for species Mn                  .
  | Found nuclear charge :  25.0000
  | Found atomic mass :    54.9380450000000      amu
  | Found l_max for Hartree potential  :   6
  | Found cutoff potl. onset [A], width [A], scale factor :    4.00000    2.00000    1.00000
  | Threshold for basis-dependent cutoff potential is   0.100000E-03
  | Found data for basic radial integration grid :    50 points, outermost radius =    7.000 A
  | Found multiplier for basic radial grid :   2
  | Found angular grid specification: user-specified.
  | Specified grid contains     6 separate shells.
  | Check grid settings after all constraints further below.
  | Found free-atom valence shell :  4 s   2.000
  | Found free-atom valence shell :  3 p   6.000
  | Found free-atom valence shell :  3 d   5.000
  | Found free-ion valence shell :  4 s   1.000
  | Found free-ion valence shell :  3 p   6.000
  | Found free-ion valence shell :  3 d   4.000
  | Found hydrogenic basis function :  4 f   9.600
  | Found hydrogenic basis function :  3 d   3.200
  | Found hydrogenic basis function :  2 p   2.000
  | Found hydrogenic basis function :  5 g  13.600
  | Found hydrogenic basis function :  3 s   3.300
  Species Mn                  : Missing cutoff potential type.
  Defaulting to exp(1/x)/(1-x)^2 type cutoff potential.
  Species Mn: No 'logarithmic' tag. Using default grid for free atom:
  | Default logarithmic grid data [bohr] : 0.1000E-03 0.1000E+03 0.1012E+01
  Species Mn: On-site basis accuracy parameter (for Gram-Schmidt orthonormalisation) not specified.
  Using default value basis_acc =  0.1000000E-03.
  Species Mn                  : Using default innermost maximum threshold i_radial=  2 for radial functions.
  Species Mn                  : Default cutoff onset for free atom density etc. : 0.40000000E+01 AA.
  Species Mn                  : Basic radial grid will be enhanced according to radial_multiplier =   2, to contain   101 grid points.
 
  Reading configuration options for species Hg                  .
  | Found nuclear charge :  80.0000
  | Found atomic mass :    200.590000000000      amu
  | Found l_max for Hartree potential  :   6
  | Found cutoff potl. onset [A], width [A], scale factor :    4.00000    2.00000    1.00000
  | Threshold for basis-dependent cutoff potential is   0.100000E-03
  | Found data for basic radial integration grid :    73 points, outermost radius =    7.000 A
  | Found multiplier for basic radial grid :   2
  | Found angular grid specification: user-specified.
  | Specified grid contains     6 separate shells.
  | Check grid settings after all constraints further below.
  | Found free-atom valence shell :  6 s   2.000
  | Found free-atom valence shell :  5 p   6.000
  | Found free-atom valence shell :  5 d  10.000
  | Found free-atom valence shell :  4 f  14.000
  | Found free-ion valence shell :  6 s   1.000
  | Found free-ion valence shell :  5 p   6.000
  | Found free-ion valence shell :  5 d   9.000
  | Found free-ion valence shell :  4 f  14.000
  | Found hydrogenic basis function :  2 p   1.700
  | Found hydrogenic basis function :  4 f   7.000
  | Found ionic basis function :  6 s , default cutoff radius.
  | Found hydrogenic basis function :  5 g   9.600
  | Found hydrogenic basis function :  4 p   4.700
  | Found hydrogenic basis function :  4 d   7.800
  Species Hg                  : Missing cutoff potential type.
  Defaulting to exp(1/x)/(1-x)^2 type cutoff potential.
  Species Hg: No 'logarithmic' tag. Using default grid for free atom:
  | Default logarithmic grid data [bohr] : 0.1000E-03 0.1000E+03 0.1012E+01
  | Will include ionic basis functions of  2.0-fold positive Hg                   ion.
  Species Hg: On-site basis accuracy parameter (for Gram-Schmidt orthonormalisation) not specified.
  Using default value basis_acc =  0.1000000E-03.
  Species Hg                  : Using default innermost maximum threshold i_radial=  2 for radial functions.
  Species Hg                  : Default cutoff onset for free atom density etc. : 0.40000000E+01 AA.
  Species Hg                  : Basic radial grid will be enhanced according to radial_multiplier =   2, to contain   147 grid points.
 
  Reading configuration options for species Mg                  .
  | Found nuclear charge :  12.0000
  | Found atomic mass :    24.3050000000000      amu
  | Found l_max for Hartree potential  :   6
  | Found cutoff potl. onset [A], width [A], scale factor :    5.00000    2.00000    1.00000
  | Threshold for basis-dependent cutoff potential is   0.100000E-03
  | Found data for basic radial integration grid :    40 points, outermost radius =    7.000 A
  | Found multiplier for basic radial grid :   2
  | Found angular grid specification: user-specified.
  | Specified grid contains     6 separate shells.
  | Check grid settings after all constraints further below.
  | Found free-atom valence shell :  3 s   2.000
  | Found free-atom valence shell :  2 p   6.000
  | Found free-ion valence shell :  2 s   2.000
  | Found free-ion valence shell :  2 p   6.000
  | Found hydrogenic basis function :  2 p   1.500
  | Found ionic basis function :  3 d , default cutoff radius.
  | Found hydrogenic basis function :  3 s   2.400
  Species Mg                  : Missing cutoff potential type.
  Defaulting to exp(1/x)/(1-x)^2 type cutoff potential.
  Species Mg: No 'logarithmic' tag. Using default grid for free atom:
  | Default logarithmic grid data [bohr] : 0.1000E-03 0.1000E+03 0.1012E+01
  | Will include ionic basis functions of  2.0-fold positive Mg                   ion.
  Species Mg: On-site basis accuracy parameter (for Gram-Schmidt orthonormalisation) not specified.
  Using default value basis_acc =  0.1000000E-03.
  Species Mg                  : Using default innermost maximum threshold i_radial=  2 for radial functions.
  Species Mg                  : Default cutoff onset for free atom density etc. : 0.50000000E+01 AA.
  Species Mg                  : Basic radial grid will be enhanced according to radial_multiplier =   2, to contain    81 grid points.
 
  Reading configuration options for species Cl                  .
  | Found nuclear charge :  17.0000
  | Found atomic mass :    35.4530000000000      amu
  | Found l_max for Hartree potential  :   6
  | Found cutoff potl. onset [A], width [A], scale factor :    4.00000    2.00000    1.00000
  | Threshold for basis-dependent cutoff potential is   0.100000E-03
  | Found data for basic radial integration grid :    45 points, outermost radius =    7.000 A
  | Found multiplier for basic radial grid :   2
  | Found angular grid specification: user-specified.
  | Specified grid contains     5 separate shells.
  | Check grid settings after all constraints further below.
  | Found free-atom valence shell :  3 s   2.000
  | Found free-atom valence shell :  3 p   5.000
  | Found free-ion valence shell :  3 s   1.000
  | Found free-ion valence shell :  3 p   4.000
  | Found ionic basis function :  3 d , default cutoff radius.
  | Found hydrogenic basis function :  2 p   1.900
  | Found hydrogenic basis function :  4 f   7.400
  | Found ionic basis function :  3 s , default cutoff radius.
  | Found hydrogenic basis function :  5 g  10.400
  Species Cl                  : Missing cutoff potential type.
  Defaulting to exp(1/x)/(1-x)^2 type cutoff potential.
  Species Cl: No 'logarithmic' tag. Using default grid for free atom:
  | Default logarithmic grid data [bohr] : 0.1000E-03 0.1000E+03 0.1012E+01
  | Will include ionic basis functions of  2.0-fold positive Cl                   ion.
  Species Cl: On-site basis accuracy parameter (for Gram-Schmidt orthonormalisation) not specified.
  Using default value basis_acc =  0.1000000E-03.
  Species Cl                  : Using default innermost maximum threshold i_radial=  2 for radial functions.
  Species Cl                  : Default cutoff onset for free atom density etc. : 0.40000000E+01 AA.
  Species Cl                  : Basic radial grid will be enhanced according to radial_multiplier =   2, to contain    91 grid points.
 
  Reading configuration options for species Br                  .
  | Found nuclear charge :  35.0000
  | Found atomic mass :    79.9040000000000      amu
  | Found l_max for Hartree potential  :   6
  | Found cutoff potl. onset [A], width [A], scale factor :    4.00000    2.00000    1.00000
  | Threshold for basis-dependent cutoff potential is   0.100000E-03
  | Found data for basic radial integration grid :    56 points, outermost radius =    7.000 A
  | Found multiplier for basic radial grid :   2
  | Found angular grid specification: user-specified.
  | Specified grid contains     5 separate shells.
  | Check grid settings after all constraints further below.
  | Found free-atom valence shell :  4 s   2.000
  | Found free-atom valence shell :  4 p   5.000
  | Found free-atom valence shell :  3 d  10.000
  | Found free-ion valence shell :  4 s   1.000
  | Found free-ion valence shell :  4 p   4.000
  | Found free-ion valence shell :  3 d  10.000
  | Found hydrogenic basis function :  3 d   4.600
  | Found hydrogenic basis function :  2 p   1.700
  | Found hydrogenic basis function :  4 f   7.600
  | Found ionic basis function :  4 s , default cutoff radius.
  Species Br                  : Missing cutoff potential type.
  Defaulting to exp(1/x)/(1-x)^2 type cutoff potential.
  Species Br: No 'logarithmic' tag. Using default grid for free atom:
  | Default logarithmic grid data [bohr] : 0.1000E-03 0.1000E+03 0.1012E+01
  | Will include ionic basis functions of  2.0-fold positive Br                   ion.
  Species Br: On-site basis accuracy parameter (for Gram-Schmidt orthonormalisation) not specified.
  Using default value basis_acc =  0.1000000E-03.
  Species Br                  : Using default innermost maximum threshold i_radial=  2 for radial functions.
  Species Br                  : Default cutoff onset for free atom density etc. : 0.40000000E+01 AA.
  Species Br                  : Basic radial grid will be enhanced according to radial_multiplier =   2, to contain   113 grid points.

  Plot band    1
  | begin  0.000000  0.000000  0.000000
  | end    0.500000  0.000000  0.000000
  | number of points:   50

  Plot band    2
  | begin  0.500000  0.000000  0.000000
  | end    0.500000  0.500000  0.000000
  | number of points:   50

  Plot band    3
  | begin  0.500000  0.500000  0.000000
  | end    0.000000  0.500000  0.000000
  | number of points:   50

  Plot band    4
  | begin  0.000000  0.500000  0.000000
  | end    0.000000  0.000000  0.000000
  | number of points:   50

  Plot band    5
  | begin  0.000000  0.000000  0.000000
  | end    0.000000  0.000000  0.500000
  | number of points:   50

  Plot band    6
  | begin  0.000000  0.000000  0.500000
  | end    0.500000  0.000000  0.500000
  | number of points:   50

  Plot band    7
  | begin  0.500000  0.000000  0.500000
  | end    0.500000  0.500000  0.500000
  | number of points:   50

  Plot band    8
  | begin  0.500000  0.500000  0.500000
  | end    0.000000  0.500000  0.500000
  | number of points:   50

  Plot band    9
  | begin  0.000000  0.500000  0.500000
  | end    0.000000  0.000000  0.500000
  | number of points:   50

  Plot band   10
  | begin  0.000000  0.000000  0.500000
  | end    0.000000  0.000000  0.000000
  | number of points:   50
 
  Reading configuration options for species Rb                  .
  | Found nuclear charge :  37.0000
  | Found atomic mass :    85.4678000000000      amu
  | Found l_max for Hartree potential  :   6
  | Found cutoff potl. onset [A], width [A], scale factor :    6.00000    2.00000    1.00000
  | Threshold for basis-dependent cutoff potential is   0.100000E-03
  | Found data for basic radial integration grid :    57 points, outermost radius =    7.000 A
  | Found multiplier for basic radial grid :   2
  | Found angular grid specification: user-specified.
  | Specified grid contains     5 separate shells.
  | Check grid settings after all constraints further below.
  | Found free-atom valence shell :  5 s   1.000
  | Found free-atom valence shell :  4 p   6.000
  | Found free-atom valence shell :  3 d  10.000
  | Found free-ion valence shell :  5 s   0.000
  | Found free-ion valence shell :  4 p   6.000
  | Found free-ion valence shell :  3 d  10.000
  | Found hydrogenic basis function :  3 d   4.500
  | Found hydrogenic basis function :  3 p   2.500
  | Found hydrogenic basis function :  4 f   6.600
  | Found hydrogenic basis function :  4 s   2.900
  Species Rb                  : Missing cutoff potential type.
  Defaulting to exp(1/x)/(1-x)^2 type cutoff potential.
  Species Rb: No 'logarithmic' tag. Using default grid for free atom:
  | Default logarithmic grid data [bohr] : 0.1000E-03 0.1000E+03 0.1012E+01
  Species Rb: On-site basis accuracy parameter (for Gram-Schmidt orthonormalisation) not specified.
  Using default value basis_acc =  0.1000000E-03.
  Species Rb                  : Using default innermost maximum threshold i_radial=  2 for radial functions.
  Species Rb                  : Default cutoff onset for free atom density etc. : 0.60000000E+01 AA.
  Species Rb                  : Basic radial grid will be enhanced according to radial_multiplier =   2, to contain   115 grid points.
 
  Reading configuration options for species K                   .
  | Found nuclear charge :  19.0000
  | Found atomic mass :    39.0983000000000      amu
  | Found l_max for Hartree potential  :   6
  | Found cutoff potl. onset [A], width [A], scale factor :    6.00000    2.00000    1.00000
  | Threshold for basis-dependent cutoff potential is   0.100000E-03
  | Found data for basic radial integration grid :    46 points, outermost radius =    7.000 A
  | Found multiplier for basic radial grid :   2
  | Found angular grid specification: user-specified.
  | Specified grid contains     5 separate shells.
  | Check grid settings after all constraints further below.
  | Found free-atom valence shell :  4 s   1.000
  | Found free-atom valence shell :  3 p   6.000
  | Found free-ion valence shell :  3 s   2.000
  | Found free-ion valence shell :  3 p   6.000
  | Found ionic basis function :  3 d , default cutoff radius.
  | Found ionic basis function :  4 p , default cutoff radius.
  | Found hydrogenic basis function :  4 s   3.100
  | Found hydrogenic basis function :  4 f   5.600
  Species K                   : Missing cutoff potential type.
  Defaulting to exp(1/x)/(1-x)^2 type cutoff potential.
  Species K : No 'logarithmic' tag. Using default grid for free atom:
  | Default logarithmic grid data [bohr] : 0.1000E-03 0.1000E+03 0.1012E+01
  | Will include ionic basis functions of  1.0-fold positive K                    ion.
  Species K : On-site basis accuracy parameter (for Gram-Schmidt orthonormalisation) not specified.
  Using default value basis_acc =  0.1000000E-03.
  Species K                   : Using default innermost maximum threshold i_radial=  2 for radial functions.
  Species K                   : Default cutoff onset for free atom density etc. : 0.60000000E+01 AA.
  Species K                   : Basic radial grid will be enhanced according to radial_multiplier =   2, to contain    93 grid points.
 
  Finished reading input file 'control.in'. Consistency checks are next.
 
  Target number of points in a grid batch is not set. Defaulting to  100
  Method for grid partitioning is not set. Defaulting to parallel hash+maxmin partitioning.
  Batch size limit is not set. Defaulting to    200
  By default, will store active basis functions for each batch.
  If in need of memory, prune_basis_once .false. can be used to disable this option.
  communication_type for Hartree potential was not specified.
  Defaulting to calc_hartree .
  Defaulting to Pulay charge density mixer.
  Pulay mixer: Number of initial linear mixing iterations not set.
  Defaulting to    0 iterations.
  Work space size for distributed Hartree potential not set.
  Defaulting to   0.200000E+03 MB.
  Algorithm-dependent basis array size parameters:
  | n_max_pulay                         :        8
  Presetting        40 iterations before the initial mixing cycle
  is restarted anyway using the sc_init_iter criterion / keyword.
  Presetting a factor      1.000 between actual scf density residual
  and density convergence criterion sc_accuracy_rho below which sc_init_iter
  takes no effect.
  Calculation of forces was not defined in control.in. No forces will be calculated.
  Geometry relaxation not requested: no relaxation will be performed.
  No accuracy limit for integral partition fn. given. Defaulting to  0.1000E-14.
  No threshold value for u(r) in integrations given. Defaulting to  0.1000E-05.
  No occupation type (smearing scheme) given. Defaulting to Gaussian broadening, width =  0.1000E-01 eV.
  No accuracy for occupation numbers given. Defaulting to  0.1000E-07.
  No threshold value for occupation numbers given. Defaulting to  0.0000E+00.
  No accuracy for fermi level given. Defaulting to  0.1000E-19.
  Maximum # of iterations to find E_F not set. Defaulting to  200.
  Preferred method for the eigenvalue solver ('KS_method') not specified in 'control.in'.
  Defaulting to serial version, 'lapack_fast', since more k-points than CPUs available.
  Will not use alltoall communication since running on < 1024 CPUs.
  Threshold for basis singularities not set.
  Default threshold for basis singularities:  0.1000E-04
  partition_type (choice of integration weights) for integrals was not specified.
  | Using a version of the partition function of Stratmann and coworkers ('stratmann_smoother').
  | At each grid point, the set of atoms used to build the partition table is smoothly restricted to
  | only those atoms whose free-atom density would be non-zero at that grid point.
  Partitioning for Hartree potential was not defined. Using partition_type for integrals.
  | Adjusted default value of keyword multip_moments_threshold to:       0.10000000E-11
  | This value may affect high angular momentum components of the Hartree potential in periodic systems.
  Angular momentum expansion for Kerker preconditioner not set explicitly.
  | Using default value of   0
  No explicit requirement for turning off preconditioner.
  | By default, it will be turned off when the charge convergence reaches
  | sc_accuracy_rho  =   0.100000E-03
  | sc_accuracy_eev  =   0.100000E-01
  | sc_accuracy_etot =   0.100000E-04
  No special mixing parameter while Kerker preconditioner is on.
  Using default: charge_mix_param =     0.2000.
  No q(lm)/r^(l+1) cutoff set for long-range Hartree potential.
  | Using default value of  0.100000E-09 .
  | Verify using the multipole_threshold keyword.
  Defaulting to new monopole extrapolation.
  Density update method: automatic selection selected.
  Using density matrix based charge density update.
  Using density matrix based charge density update.
  Using packed matrix style: index .
  Defaulting to use time-reversal symmetry for k-point grid.
  Using the following vdw_convergence_threshold for supercell sums
  over the Tkatchenko-Scheffler correction:  0.100000E-05 eV.
------------------------------------------------------------


------------------------------------------------------------
          Reading geometry description geometry.in.
------------------------------------------------------------
  Input structure read successfully.
  The structure contains        5 atoms,  and a total of        136.000 electrons.

  Input geometry:
  | Unit cell:
  |         5.193449         0.035636        -0.361524
  |        -0.018994         9.252086         0.647949
  |         0.194615         2.426570         3.026890
  | Atomic structure:
  |       Atom                x [A]            y [A]            z [A]
  |    1: Species Mg             0.092121         0.283911        -0.340207
  |    2: Species Br             2.688946         0.308803        -0.521440
  |    3: Species Br             0.280961         0.063489         2.336638
  |    4: Species Br             0.098151         2.932291         0.013093
  |    5: Species K              2.680047         4.918968        -0.205075

  Lattice parameters for dimension 3 lattice :     5.206138    9.274767    3.884351   47.350347   89.991777   90.003779

  |

  | The smallest distance between any two atoms is         2.60289755 AA.
  |
  | The first atom of this pair is atom number                      1 .
  | The second atom of this pair is atom number                     2 .
  | Wigner-Seitz cell of the first atom image           0     0     0 .
  | (The Wigner-Seitz cell of the second atom is 0 0 0  by definition.)

  Quantities derived from the lattice vectors:
  | Reciprocal lattice vector 1:  1.203917  0.008362 -0.084110
  | Reciprocal lattice vector 2: -0.044869  0.719194 -0.573672
  | Reciprocal lattice vector 3:  0.153398 -0.152955  2.188546
  | Unit cell volume                               :   0.137951E+03  A^3

  Number of empty states per atom not set in control.in - providing a guess from actual geometry.
  | Total number of empty states used during s.c.f. cycle:       23
  If you use a very high smearing, use empty_states (per atom!) in control.in to increase this value.

  Structure-dependent array size parameters: 
  | Maximum number of distinct radial functions  :      146
  | Maximum number of basis functions            :      143
  | Number of Kohn-Sham states (occupied + empty):       91
------------------------------------------------------------

------------------------------------------------------------
          Preparing all fixed parts of the calculation.
------------------------------------------------------------
  Determining machine precision:
    2.225073858507201E-308
  Setting up grids for atomic and cluster calculations.

  Creating wave function, potential, and density for free atoms.

  Species: N

  List of occupied orbitals and eigenvalues:
    n    l              occ      energy [Ha]    energy [eV]
    1    0           2.0000       -14.144983      -384.9046
    2    0           2.0000        -0.682735       -18.5782
    2    1           3.0000        -0.260361        -7.0848


  Species: C

[...]
    102               102       1.00000                     -48.703435         -48.612707             0.000000
    103               103       1.00000                     -48.696260         -48.606070             0.006637
    104               104       1.00000                     -48.696260         -48.606070             0.000000
    105               105       1.00000                     -36.056142         -36.056142            12.549928
    106               106       1.00000                     -36.056142         -36.056142             0.000000
    107               107       1.00000                     -21.092356         -21.092353            14.963789
    108               108       1.00000                     -21.092356         -21.092353             0.000000
    109               109       1.00000                     -20.558880         -20.559922             0.532431
    110               110       1.00000                     -20.558880         -20.559922             0.000000
    111               111       1.00000                     -20.175609         -20.175609             0.384313
    112               112       1.00000                     -20.175609         -20.175609             0.000000
    113               113       1.00000                     -19.539394         -19.676287             0.499322
    114               114       1.00000                     -19.539394         -19.676287             0.000000
    115               115       1.00000                     -19.532095         -19.447897             0.228390
    116               116       1.00000                     -19.532095         -19.447897             0.000000
    117               117       1.00000                     -19.415690         -19.360491             0.087405
    118               118       1.00000                     -19.415690         -19.360491             0.000000
    119               119       1.00000                     -10.558861         -10.571557             8.788934
    120               120       1.00000                     -10.558861         -10.571557             0.000000
    121               121       1.00000                     -10.270525         -10.286266             0.285291
    122               122       1.00000                     -10.270525         -10.286266             0.000000
    123               123       1.00000                      -8.678977          -8.712103             1.574163
    124               124       1.00000                      -8.678977          -8.712103             0.000000
    125               125       1.00000                      -8.540701          -8.595569             0.116534
    126               126       1.00000                      -8.540701          -8.595569             0.000000
    127               127       1.00000                      -8.459046          -8.436865             0.158705
    128               128       1.00000                      -8.459046          -8.436865             0.000000
    129               129       1.00000                      -8.281008          -8.197795             0.239070
    130               130       1.00000                      -8.281008          -8.197795             0.000000
    131               131       1.00000                      -7.853265          -7.912988             0.284806
    132               132       1.00000                      -7.853265          -7.912988             0.000000
    133               133       1.00000                      -7.418874          -7.359766             0.553223
    134               134       1.00000                      -7.418874          -7.359766             0.000000
    135               135       1.00000                      -6.910613          -6.845603             0.514163
    136               136       1.00000                      -6.910613          -6.845603             0.000000
    137               137       0.00000                      -3.563384          -3.562993             3.282610
    138               138       0.00000                      -3.563384          -3.562993             0.000000
    139               139       0.00000                      -2.347474          -2.346511             1.216482
    140               140       0.00000                      -2.347474          -2.346511             0.000000
    141               141       0.00000                      -0.068882          -0.068576             2.277935
    142               142       0.00000                      -0.068882          -0.068576             0.000000
    143               143       0.00000                      -0.038300          -0.037341             0.031235
    144               144       0.00000                      -0.038300          -0.037341             0.000000
    145               145       0.00000                       0.686236           0.686213             0.723554
    146               146       0.00000                       0.686236           0.686213             0.000000
    147               147       0.00000                       1.158450           1.158159             0.471946
    148               148       0.00000                       1.158450           1.158159             0.000000
    149               149       0.00000                       1.481508           1.486015             0.327856
    150               150       0.00000                       1.481508           1.486015             0.000000
    151               151       0.00000                       2.028438           2.003808             0.517793
    152               152       0.00000                       2.028438           2.003808             0.000000
    153               153       0.00000                       2.051785           2.061787             0.057978
    154               154       0.00000                       2.051785           2.061787             0.000000
    155               155       0.00000                       2.064737           2.086052             0.024266
    156               156       0.00000                       2.064737           2.086052             0.000000
    157               157       0.00000                       2.583518           2.584353             0.498301
    158               158       0.00000                       2.583518           2.584353             0.000000
    159               159       0.00000                       2.840007           2.841045             0.256692
    160               160       0.00000                       2.840007           2.841045             0.000000
    161               161       0.00000                       3.724162           3.724282             0.883238
    162               162       0.00000                       3.724162           3.724282             0.000000
    163               163       0.00000                       3.850580           3.852145             0.127863
    164               164       0.00000                       3.850580           3.852145             0.000000
    165               165       0.00000                       4.751412           4.752700             0.900555
    166               166       0.00000                       4.751412           4.752700             0.000000
    167               167       0.00000                       5.384519           5.390157             0.637456
    168               168       0.00000                       5.384519           5.390157             0.000000
    169               169       0.00000                       5.390584           5.394651             0.004494
    170               170       0.00000                       5.390584           5.394651             0.000000
    171               171       0.00000                       6.207325           6.208183             0.813532
    172               172       0.00000                       6.207325           6.208183             0.000000
    173               173       0.00000                       6.402890           6.407243             0.199061
    174               174       0.00000                       6.402890           6.407243             0.000000
    175               175       0.00000                       6.806938           6.807228             0.399985
    176               176       0.00000                       6.806938           6.807228             0.000000
    177               177       0.00000                       9.189747           9.191115             2.383887
    178               178       0.00000                       9.189747           9.191115             0.000000
    179               179       0.00000                      10.615193          10.617753             1.426638
    180               180       0.00000                      10.615193          10.617753             0.000000
    181               181       0.00000                      10.688056          10.688867             0.071114
    182               182       0.00000                      10.688056          10.688867             0.000000

  What follows are estimated values for band gap, HOMO, LUMO, etc., for SOC-perturbed eigenvalues.
  | They are estimated on a discrete k-point grid and not necessarily exact.
  | For converged numbers, create a DOS and/or band structure plot on a denser k-grid.

  Highest occupied state (VBM) at     -6.84560268 eV (relative to internal zero)
  | Occupation number:      1.00000000
  | K-point:       1 at    0.000000    0.000000    0.000000 (in units of recip. lattice)

  Lowest unoccupied state (CBM) at    -3.56299293 eV (relative to internal zero)
  | Occupation number:      0.00000000
  | K-point:       1 at    0.000000    0.000000    0.000000 (in units of recip. lattice)

  ESTIMATED overall HOMO-LUMO gap:      3.28260975 eV between HOMO at k-point 1 and LUMO at k-point 1
  | This appears to be a direct band gap.
  The gap value is above 0.2 eV. Unless you are using a very sparse k-point grid,
  this system is most likely an insulator or a semiconductor.

  Spin-orbit coupling                                     :  max(cpu_time)    wall_clock(cpu1)
  | Computing matrix elements                             :          2.400               2.401
  | Performing perturbations                              :          0.170               0.170
  | Syncing data and calculating occupations              :          0.003               0.004
  | Writing out data, calculating band gaps, etc.         :          0.123               0.150
  | Total SOC time                                        :          2.697               2.725
 ------------------------------------------------------------

  -------------------------------------------------------------------
  Writing the requested band structure output:
  -------------------------------------------------------------------

  Integrating Hamiltonian matrix: batch-based integration.
  Time summed over all CPUs for integration: real work       20.844 s, elapsed       21.446 s
  Integrating SOC matrix: batch-based integration p2 version.
  Allocating        0.184 MB for dist_tab
  Allocating        0.184 MB for dist_tab_sq
  Allocating        0.553 MB for dir_tab
  Allocating        0.115 MB for i_basis_fns
  Allocating        2.759 MB for i_basis_fns_inv
  Allocating        0.115 MB for i_atom_fns
  Allocating        2.235 MB for gradient_basis_wave
  Allocating        0.009 MB for ylm_tab
  Allocating        0.002 MB for radial_wave
  Allocating        0.002 MB for radial_wave_deriv
  Allocating        0.013 MB for i_basis
  Allocating       30.414 MB for soc_shell
  Allocating        0.028 MB for sum_gradient
  Allocating        0.056 MB for sum_hessian
  Allocating        0.001 MB for hartree_shell

  Treating all   50 k-points in band plot segment #   1:


  "Band gap" along reciprocal space direction number:    1
  | Lowest unoccupied state:      -3.56299293 eV
  | Highest occupied state :      -6.84560268 eV
  | Energy difference      :       3.28260975 eV


  Treating all   50 k-points in band plot segment #   2:


  "Band gap" along reciprocal space direction number:    2
  | Lowest unoccupied state:      -1.98635758 eV
  | Highest occupied state :      -7.09165657 eV
  | Energy difference      :       5.10529899 eV


  Treating all   50 k-points in band plot segment #   3:


  "Band gap" along reciprocal space direction number:    3
  | Lowest unoccupied state:      -2.35381109 eV
  | Highest occupied state :      -6.92975406 eV
  | Energy difference      :       4.57594297 eV


  Treating all   50 k-points in band plot segment #   4:


  "Band gap" along reciprocal space direction number:    4
  | Lowest unoccupied state:      -3.56299293 eV
  | Highest occupied state :      -6.84560268 eV
  | Energy difference      :       3.28260975 eV


  Treating all   50 k-points in band plot segment #   5:


  "Band gap" along reciprocal space direction number:    5
  | Lowest unoccupied state:      -3.56299293 eV
  | Highest occupied state :      -6.84560268 eV
  | Energy difference      :       3.28260975 eV


  Treating all   50 k-points in band plot segment #   6:


  "Band gap" along reciprocal space direction number:    6
  | Lowest unoccupied state:      -2.71680737 eV
  | Highest occupied state :      -7.39482304 eV
  | Energy difference      :       4.67801567 eV


  Treating all   50 k-points in band plot segment #   7:


  "Band gap" along reciprocal space direction number:    7
  | Lowest unoccupied state:      -1.48340008 eV
  | Highest occupied state :      -7.38349822 eV
  | Energy difference      :       5.90009813 eV


  Treating all   50 k-points in band plot segment #   8:


  "Band gap" along reciprocal space direction number:    8
  | Lowest unoccupied state:      -2.33761560 eV
  | Highest occupied state :      -7.38349822 eV
  | Energy difference      :       5.04588262 eV


  Treating all   50 k-points in band plot segment #   9:


  "Band gap" along reciprocal space direction number:    9
  | Lowest unoccupied state:      -2.71693325 eV
  | Highest occupied state :      -7.61460190 eV
  | Energy difference      :       4.89766864 eV


  Treating all   50 k-points in band plot segment #  10:


  "Band gap" along reciprocal space direction number:   10
  | Lowest unoccupied state:      -3.56299293 eV
  | Highest occupied state :      -6.84560268 eV
  | Energy difference      :       3.28260975 eV

  "Band gap" of total set of bands:
  | Lowest unoccupied state:      -3.56299293 eV
  | Highest occupied state :      -6.84560268 eV
  | Energy difference      :       3.28260975 eV


  Band Structure                                          :  max(cpu_time) wall_clock(cpu1)
  | Total Time                                            :          4.531            4.628
  ------------------------------------------------------------

------------------------------------------------------------------------------
  Final output of selected total energy values:

  The following output summarizes some interesting total energy values
  at the end of a run (AFTER all relaxation, molecular dynamics, etc.).

  | Total energy of the DFT / Hartree-Fock s.c.f. calculation      :        -236093.286548944 eV
  | Final zero-broadening corrected energy (caution - metals only) :        -236093.286548944 eV
  | Total energy after non-SC SOC correction (DO NOT USE)          :        -236093.388101613 eV
  | For reference only, the value of 1 Hartree used in FHI-aims is :             27.211384500 eV

  Before relying on these values, please be sure to understand exactly which
  total energy value is referred to by a given number. Different objects may
  all carry the same name 'total energy'. Definitions:

  Total energy of the DFT / Hartree-Fock s.c.f. calculation:
  | Note that this energy does not include ANY quantities calculated after the
  | s.c.f. cycle, in particular not ANY RPA, MP2, etc. many-body perturbation terms.

  Final zero-broadening corrected energy:
  | For metallic systems only, a broadening of the occupation numbers at the Fermi
  | level can be extrapolated back to zero broadening by an electron-gas inspired
  | formula. For all systems that are not real metals, this value can be
  | meaningless and should be avoided.

------------------------------------------------------------------------------
  Methods described in the following list of references were used in this FHI-aims run.
  If you publish the results, please make sure to cite these reference if they apply.
  FHI-aims is an academic code, and for our developers (often, Ph.D. students
  and postdocs), scientific credit in the community is essential.
  Thank you for helping us!

  For any use of FHI-aims, please cite:

    Volker Blum, Ralf Gehrke, Felix Hanke, Paula Havu, Ville Havu,
    Xinguo Ren, Karsten Reuter, and Matthias Scheffler
    'Ab initio molecular simulations with numeric atom-centered orbitals'
    Computer Physics Communications 180, 2175-2196 (2009)
    http://dx.doi.org/10.1016/j.cpc.2009.06.022


  For perturbative spin-orbit coupling used in your run, please cite:

    At the time of this release, we are working on two manuscripts benchmarking
    the SOC code, with one of them near publication.  By the time your paper
    reaches the publication stage, we should have these papers ready for citation.
    Please contact william.huhn@duke.edu (and volker.blum@duke.edu) for the
    finalized citations.


  For the real-space grid partitioning and parallelization used in this calculation, please cite:

    Ville Havu, Volker Blum, Paula Havu, and Matthias Scheffler,
    'Efficient O(N) integration for all-electron electronic structure calculation'
    'using numerically tabulated basis functions'
    Journal of Computational Physics 228, 8367-8379 (2009).
    http://dx.doi.org/10.1016/j.jcp.2009.08.008

  Of course, there are many other important community references, e.g., those cited in the
  above references. Our list is limited to references that describe implementations in the
  FHI-aims code. The reason is purely practical (length of this list) - please credit others as well.

------------------------------------------------------------
          Leaving FHI-aims.
          Date     :  20180621, Time     :  162433.372

          Computational steps:
          | Number of self-consistency cycles          :           11

          Detailed time accounting                     :  max(cpu_time)    wall_clock(cpu1)
          | Total time                                 :       44.121 s          44.128 s
          | Preparation time                           :        1.917 s           1.936 s
          | Grid partitioning                          :        0.142 s           0.142 s
          | Preloading free-atom quantities on grid    :        0.220 s           0.220 s
          | Free-atom superposition energy             :        0.042 s           0.042 s
          | Total time for integrations                :        9.023 s           9.024 s
          | Total time for solution of K.-S. equations :        0.689 s           0.693 s
          | Total time for density update              :       16.746 s          16.739 s
          | Total time for mixing & preconditioning    :        1.857 s           1.859 s
          | Total time for Hartree multipole update    :        0.073 s           0.072 s
          | Total time for Hartree multipole sum       :        4.480 s           4.480 s
          | Total time for total energy evaluation     :        0.004 s           0.009 s
          | Total time for scaled ZORA corrections     :        0.000 s           0.000 s
          | Total time for vdW correction              :        0.961 s           0.961 s
          | Total time for perturbative SOC            :        2.699 s           2.725 s
          | Total time for band structures, DOS        :        4.617 s           4.628 s

          Have a nice day.
------------------------------------------------------------
