  MPI-parallelism will be employed.
------------------------------------------------------------
          Invoking FHI-aims ...
          Version 012513
          Compiled on 2013/02/11 at 12:22:23 on host aims02.

          When using FHI-aims, please cite the following reference:

          Volker Blum, Ralf Gehrke, Felix Hanke, Paula Havu,
          Ville Havu, Xinguo Ren, Karsten Reuter, and Matthias Scheffler,
          'Ab Initio Molecular Simulations with Numeric Atom-Centered Orbitals: FHI-aims',
          Computer Physics Communications 180, 2175-2196 (2009)

------------------------------------------------------------

  Date     :  20130211, Time     :  174621.723
  Time zero on CPU 1             :   0.720030000000000E-01  s.
  Internal wall clock time zero  :           129836781.723  s.

  Using       16 parallel tasks.
  Task        0 on host aims301 reporting.
  Task        1 on host aims301 reporting.
  Task        2 on host aims301 reporting.
  Task        3 on host aims301 reporting.
  Task        4 on host aims301 reporting.
  Task        5 on host aims301 reporting.
  Task        6 on host aims301 reporting.
  Task        7 on host aims301 reporting.
  Task        8 on host aims280 reporting.
  Task        9 on host aims280 reporting.
  Task       10 on host aims280 reporting.
  Task       11 on host aims280 reporting.
  Task       12 on host aims280 reporting.
  Task       13 on host aims280 reporting.
  Task       14 on host aims280 reporting.
  Task       15 on host aims280 reporting.

  Performing system and environment tests:
  *** Environment variable OMP_NUM_THREADS is not set
  *** For performance reasons you might want to set it to 1
  | Checking for scalapack...
  | Testing pdtran()...
  | All pdtran() tests passed.

  Obtaining array dimensions for all initial allocations:
  
  -----------------------------------------------------------------------
  Parsing control.in (first pass over file, find array dimensions only).
  The contents of control.in will be repeated verbatim below
  unless switched off by setting 'verbatim_writeout .false.' .
  in the first line of control.in .
  -----------------------------------------------------------------------
  
  # control file used to get the finite displacements in the phonon calculations
    xc           pw-lda
    relativistic atomic_zora scalar
    k_grid                     12 12 12
    # Slightly overconverged kp, would need 10.05
    sc_accuracy_rho            1E-6
    sc_accuracy_eev            1E-4
    sc_accuracy_etot           1E-6
    sc_accuracy_forces         1E-4
    sc_iter_limit         100
  
    occupation_type gaussian  0.01
  
    mixer           pulay
      n_max_pulay               10
      charge_mix_param          0.4
  
  
    phonon displacement 0.01
    phonon supercell -1 1 1   1 -1 1  1 1 -1
    phonon frequency_units cm^-1
  
  #  phonon cv    0     800   801       200
     phonon dos   0     800   800  1    50
     phonon free_energy   0  1200  1200 50
  
  
    phonon band  0     0     0     0.00  0.25  0.25  100   Gamma  Delta
    phonon band  0.00  0.25  0.25  0     0.5   0.5   100   Delta  X
    phonon band  0     0.5   0.5   0.25  0.50  0.75  100   X      W
    phonon band  0.25  0.50  0.75  0.375 0.375 0.75  100   W      K
    phonon band  0.375 0.375 0.75  0     0     0     100   K      Gamma
    phonon band  0     0     0     0.25  0.25  0.25  100   Gamma  Lambda
    phonon band  0.25  0.25  0.25  0.5   0.5   0.5   100   Lambda L
  
  ################################################################################
  #
  #  FHI-aims code project
  #  VB, Fritz-Haber Institut, 2009
  #
  #  Suggested "light" defaults for Ge atom (to be pasted into control.in file)
  #  Be sure to double-check any results obtained with these settings for post-processing,
  #  e.g., with the "tight" defaults and larger basis sets.
  #
  ################################################################################
    species        Ge
  #     global species definitions
      nucleus             32
      mass                72.64
  #
      l_hartree           4
  #
      cut_pot             3.5          1.5  1.0
      basis_dep_cutoff    1e-4
  #
      radial_base         54 5.0
      radial_multiplier   1
      angular_grids       specified
        division   0.0947  110
        division   0.1314  194
        division   0.7746  302
  #      division   0.8710  434
  #      division   0.9770  590
  #      division   1.1356  770
  #      division   2.6430  974
  #      outer_grid  974
        outer_grid  302
  ################################################################################
  #
  #  Definition of "minimal" basis
  #
  ################################################################################
  #     valence basis states
      valence      4  s   2.
      valence      4  p   2.
      valence      3  d  10.
  #     ion occupancy
      ion_occ      4  s   1.
      ion_occ      4  p   1.
      ion_occ      3  d  10.
  ################################################################################
  #
  #  Suggested additional basis functions. For production calculations,
  #  uncomment them one after another (the most important basis functions are
  #  listed first).
  #
  #  Constructed for dimers: 1.80 A, 2.00 A, 2.35 A, 3.00 A, 4.00 A
  #
  ################################################################################
  #  "First tier" - improvements: -329.04 meV to -37.61 meV
       hydro 2 p 1.4
       hydro 3 d 4.3
  #     hydro 4 f 7.4
       hydro 3 s 3.4
  #  "Second tier" - improvements: -13.91 meV to -1.23 meV
  #     hydro 5 g 10.8
  #     hydro 3 d 2.5
  #     hydro 3 p 3.3
  #     hydro 4 f 12
  #     hydro 6 h 15.6
  #     hydro 3 s 7.2
  #  "Third tier" - improvements: -1.47 meV to -0.40 meV
  #     hydro 3 d 5.8
  #     hydro 4 f 4.3
  #     hydro 5 g 11.6
  #     hydro 5 s 14.8
  #     hydro 4 p 3.9
  #  "Fourth tier"  -improvements: -0.39 meV to -0.11 meV
  #     hydro 4 f 23.2
  #     hydro 2 s 6.2
  #     hydro 5 d 9.8
  #     hydro 5 p 6
  #     hydro 6 h 14.8
  #  Further functions - -0.13 meV and below
  #     hydro 5 f 9.6
  
  -----------------------------------------------------------------------
  Completed first pass over input file control.in .
  -----------------------------------------------------------------------
  
  
  -----------------------------------------------------------------------
  Parsing geometry.in (first pass over file, find array dimensions only).
  The contents of geometry.in will be repeated verbatim below
  unless switched off by setting 'verbatim_writeout .false.' .
  in the first line of geometry.in .
  -----------------------------------------------------------------------
  
  # geometry.in for FHI-aims
  # | generated by phonopy.FHIaims.write_aims()
  lattice_vector 5.6399999999999988 0.0000000000000000 0.0000000000000000
  lattice_vector 0.0000000000000000 5.6399999999999988 0.0000000000000000
  lattice_vector 0.0000000000000000 0.0000000000000000 5.6399999999999988
  atom 0.0100000000000000 0.0000000000000000 0.0000000000000000 Ge
  atom 5.6399999999999988 2.8199999999999994 2.8199999999999994 Ge
  atom 2.8199999999999994 0.0000000000000000 2.8199999999999994 Ge
  atom 2.8199999999999990 2.8199999999999994 0.0000000000000000 Ge
  atom 1.4099999999999995 1.4099999999999997 1.4099999999999997 Ge
  atom 1.4099999999999993 4.2299999999999986 4.2299999999999986 Ge
  atom 4.2299999999999986 1.4099999999999997 4.2299999999999986 Ge
  atom 4.2299999999999986 4.2299999999999986 1.4099999999999997 Ge
  
  -----------------------------------------------------------------------
  Completed first pass over input file geometry.in .
  -----------------------------------------------------------------------
  
 
  Basic array size parameters: 
  | Number of species                 :        1
  | Number of atoms                   :        8
  | Number of lattice vectors         :        3
  | Max. basis fn. angular momentum   :        2
  | Max. atomic/ionic basis occupied n:        4
  | Max. number of basis fn. types    :        2
  | Max. radial fns per species/type  :        8
  | Max. logarithmic grid size        :     1414
  | Max. radial integration grid size :       54
  | Max. angular integration grid size:      302
  | Max. angular grid division number :        8
  | Radial grid for Hartree potential :     1414
  | Number of spin channels           :        1

------------------------------------------------------------
          Reading file control.in.
------------------------------------------------------------
  XC: Using Perdew-Wang parametrisation of Ceperley-Alder LDA.
  Scalar relativistic treatment of kinetic energy: on-site free-atom approximation to ZORA.
  Found k-point grid:        12        12        12
  Convergence accuracy of self-consistent charge density: 0.1000E-05
  Convergence accuracy of sum of eigenvalues: 0.1000E-03
  Convergence accuracy of total energy: 0.1000E-05
  Convergence accuracy of forces: 0.1000E-03
  Maximum number of s.-c. iterations  :   100
  Occupation type: Gaussian broadening, width =   0.100000E-01 eV.
  Using pulay charge density mixing.
  Pulay mixing - number of memorized iterations:   10
  Charge density mixing - mixing parameter:     0.4000
  Found phonon prescription, this only works if called from within phonon script.
 
  Reading configuration options for species Ge                  .
  | Found nuclear charge :  32.0000
  | Found atomic mass :    72.6400000000000      amu
  | Found l_max for Hartree potential  :   4
  | Found cutoff potl. onset [A], width [A], scale factor :    3.50000    1.50000    1.00000
  | Threshold for basis-dependent cutoff potential is   0.100000E-03
  | Found data for basic radial integration grid :    54 points, outermost radius =    5.000 A
  | Found multiplier for basic radial grid :   1
  | Found angular grid specification: user-specified.
  | Specified grid contains     4 separate shells.
  | Check grid settings after all constraints further below.
  | Found free-atom valence shell :  4 s   2.000
  | Found free-atom valence shell :  4 p   2.000
  | Found free-atom valence shell :  3 d  10.000
  | No ionic wave fns used. Skipping ion_occ.
  | No ionic wave fns used. Skipping ion_occ.
  | No ionic wave fns used. Skipping ion_occ.
  | Found hydrogenic basis function :  2 p   1.400
  | Found hydrogenic basis function :  3 d   4.300
  | Found hydrogenic basis function :  3 s   3.400
  Species Ge                  : Missing cutoff potential type.
  Defaulting to exp(1/x)/(1-x)^2 type cutoff potential.
  Species Ge: No 'logarithmic' tag. Using default grid for free atom:
  | Default logarithmic grid data [bohr] : 0.1000E-03 0.1000E+03 0.1012E+01
  Species Ge: On-site basis accuracy parameter (for Gram-Schmidt orthonormalisation) not specified.
  Using default value basis_acc =  0.1000000E-03.
  Species Ge                  : Using default innermost maximum threshold i_radial=  2 for radial functions.
  Species Ge                  : Default cutoff onset for free atom density etc. : 0.35000000E+01 AA.
  Species Ge                  : Basic radial grid will be enhanced according to radial_multiplier =   1, to contain    54 grid points.
 
  Finished reading input file 'control.in'. Consistency checks are next.
 
  Target number of points in a grid batch is not set. Defaulting to  100
  Method for grid partitioning is not set. Defaulting to parallel hash+maxmin partitioning.
  Batch size limit is not set. Defaulting to    200
  By default, will store active basis functions for each batch.
  If in need of memory, prune_basis_once .false. can be used to disable this option.
  communication_type for Hartree potential was not specified.
  Defaulting to calc_hartree .
  Pulay mixer: Number of initial linear mixing iterations not set.
  Defaulting to    0 iterations.
  Work space size for distributed Hartree potential not set.
  Defaulting to   0.200000E+03 MB.
  Algorithm-dependent basis array size parameters:
  | n_max_pulay                         :       10
  Geometry relaxation not requested: no relaxation will be performed.
  Handling of forces: Unphysical translation and rotation will be removed from forces.
  No accuracy limit for integral partition fn. given. Defaulting to 0.1000E-14.
  No threshold value for u(r) in integrations given. Defaulting to 0.1000E-05.
  No accuracy for occupation numbers given. Defaulting to 0.1000E-07.
  No threshold value for occupation numbers given. Defaulting to 0.0000E+00.
  No accuracy for fermi level given. Defaulting to 0.1000E-19.
  Maximum # of iterations to find E_F not set. Defaulting to  200.
  Preferred method for the eigenvalue solver ('KS_method') not specified in 'control.in'.
  Defaulting to serial version, 'lapack_fast', since more k-points than CPUs available.
  Will not use alltoall communication since running on < 1024 CPUs.
  Threshold for basis singularities not set.
  Default threshold for basis singularities: 0.1000E-04
  partition_type (choice of integration weights) for integrals was not specified.
  | Using a version of the partition function of Stratmann and coworkers ('stratmann_smoother').
  | At each grid point, the set of atoms used to build the partition table is smoothly restricted to
  | only those atoms whose free-atom density would be non-zero at that grid point.
  Partitioning for Hartree potential was not defined. Using partition_type for integrals.
  | Adjusted default value of keyword multip_moments_threshold to:       0.10000000E-11
  | This value may affect high angular momentum components of the Hartree potential in periodic systems.
  Spin handling was not defined in control.in. Defaulting to unpolarized case.
  Angular momentum expansion for Kerker preconditioner not set explicitly.
  | Using default value of   0
  No explicit requirement for turning off preconditioner.
  | By default, it will be turned off when the charge convergence reaches
  | sc_accuracy_rho  =   0.100000E-05
  | sc_accuracy_eev  =   0.100000E-03
  | sc_accuracy_etot =   0.100000E-05
  No special mixing parameter while Kerker preconditioner is on.
  Using default: charge_mix_param =     0.4000.
  No q(lm)/r^(l+1) cutoff set for long-range Hartree potential.
  | Using default value of  0.100000E-09 .
  | Verify using the multipole_threshold keyword.
  Defaulting to new monopole extrapolation.
  Density update method: automatic selection selected.
  Using density matrix based charge density update.
  Using density matrix based charge density update.
  Using packed matrix style: index .
  Defaulting to use time-reversal symmetry for k-point grid.
------------------------------------------------------------


------------------------------------------------------------
          Reading geometry description geometry.in.
------------------------------------------------------------
  Input structure read successfully.
  The structure contains        8 atoms,  and a total of        256.000 electrons.

  Input geometry:
  | Unit cell:
  |         5.640000         0.000000         0.000000
  |         0.000000         5.640000         0.000000
  |         0.000000         0.000000         5.640000
  | Atomic structure:
  |       Atom                x [A]            y [A]            z [A]
  |    1: Species Ge         0.010000         0.000000         0.000000
  |    2: Species Ge         5.640000         2.820000         2.820000
  |    3: Species Ge         2.820000         0.000000         2.820000
  |    4: Species Ge         2.820000         2.820000         0.000000
  |    5: Species Ge         1.410000         1.410000         1.410000
  |    6: Species Ge         1.410000         4.230000         4.230000
  |    7: Species Ge         4.230000         1.410000         4.230000
  |    8: Species Ge         4.230000         4.230000         1.410000
  |

  Quantities derived from the lattice vectors:
  | Reciprocal lattice vector 1:  1.114040  0.000000  0.000000
  | Reciprocal lattice vector 2:  0.000000  1.114040  0.000000
  | Reciprocal lattice vector 3:  0.000000  0.000000  1.114040
  | Unit cell volume                               :   0.179406E+03  A^3

  Number of empty states per atom not set in control.in - providing a guess from actual geometry.
  | Total number of empty states used during s.c.f. cycle:       44
  If you use a very high smearing, use empty_states (per atom!) in control.in to increase this value.

  Structure-dependent array size parameters: 
  | Maximum number of distinct radial functions  :       11
  | Maximum number of basis functions            :      216
  | Number of Kohn-Sham states (occupied + empty):      172
------------------------------------------------------------

------------------------------------------------------------
          Preparing all fixed parts of the calculation.
------------------------------------------------------------
  Determining machine precision:
    2.225073858507201E-308
  Setting up grids for atomic and cluster calculations.

  Creating wave function, potential, and density for free atoms.

  Species: Ge

  List of occupied orbitals and eigenvalues:
    n    l              occ      energy [Ha]    energy [eV]
    1    0           2.0000      -407.274625    -11082.5064
    2    0           2.0000       -50.416293     -1371.8971
    3    0           2.0000        -6.153267      -167.4389
    4    0           2.0000        -0.429674       -11.6920
    2    1           6.0000       -44.097452     -1199.9527
    3    1           6.0000        -4.228301      -115.0579
    4    1           2.0000        -0.138849        -3.7783
    3    2          10.0000        -1.075023       -29.2529

  Creating fixed part of basis set: Ionic, confined, hydrogenic.
 
  Ge                   hydrogenic:
 
  List of hydrogenic basis orbitals: 
    n    l      effective z      eigenvalue [eV]  inner max. [A]     outer max. [A]     outer radius [A]   
    2    1         1.400000        -6.4613           1.479492           1.479492           4.611819
    3    2         4.300000       -27.9487           1.103293           1.103293           4.555783
    3    0         3.400000       -17.2768           0.114943           2.008370           4.611819
 

  Adding cutoff potential to free-atom effective potential.
  Creating atomic-like basis functions for current effective potential.

  Species Ge                  :

  List of atomic basis orbitals and eigenvalues:
    n    l      energy [Ha]    energy [eV]    outer radius [A]
    1    0      -407.274625    -11082.5064       0.328909
    2    0       -50.416293     -1371.8971       0.952752
    3    0        -6.153267      -167.4389       2.628131
    4    0        -0.429674       -11.6920       4.555783
    2    1       -44.097452     -1199.9527       0.988343
    3    1        -4.228301      -115.0579       3.043392
    4    1        -0.138849        -3.7783       4.611819
    3    2        -1.075023       -29.2529       4.285651

  Assembling full basis from fixed parts.
  | Species Ge :   atomic orbital   1 s accepted.
  | Species Ge :   atomic orbital   2 s accepted.
  | Species Ge :   atomic orbital   3 s accepted.
  | Species Ge :   atomic orbital   4 s accepted.
  | Species Ge :    hydro orbital   3 s accepted.
  | Species Ge :   atomic orbital   2 p accepted.
  | Species Ge :   atomic orbital   3 p accepted.
  | Species Ge :   atomic orbital   4 p accepted.
  | Species Ge :    hydro orbital   2 p accepted.
  | Species Ge :   atomic orbital   3 d accepted.
  | Species Ge :    hydro orbital   3 d accepted.
 
  Basis size parameters after reduction:
  | Total number of radial functions:       11
  | Total number of basis functions :      216
 
  Preparing densities etc. for the partition functions (integrals / Hartree potential).

  Preparations completed.
  max(cpu_time)          :      0.120 s.
  Wall clock time (cpu1) :      0.123 s.
------------------------------------------------------------

------------------------------------------------------------
          Begin self-consistency loop: Initialization.

          Date     :  20130211, Time     :  174621.986
------------------------------------------------------------

  Initializing index lists of integration centers etc. from given atomic structure:
  Mapping all atomic coordinates to central unit cell.

  Initializing the k-points
          Using symmetry for reducing the k-points
  | k-points reduced from:     1728 to      868
  | Number of k-points                             :       868
  The eigenvectors in the calculations are COMPLEX.
  | K-points in task   0:        54
  | K-points in task   1:        55
  | K-points in task   2:        55
  | K-points in task   3:        55
  | K-points in task   4:        55
  | K-points in task   5:        54
  | K-points in task   6:        54
  | K-points in task   7:        54
  | K-points in task   8:        54
  | K-points in task   9:        54
  | K-points in task  10:        54
  | K-points in task  11:        54
  | K-points in task  12:        54
  | K-points in task  13:        54
  | K-points in task  14:        54
  | K-points in task  15:        54
  | Number of basis functions in the Hamiltonian integrals :      2787
  | Number of basis functions in a single unit cell        :       216
  | Number of centers in hartree potential         :       643
  | Number of centers in hartree multipole         :       485
  | Number of centers in electron density summation:       311
  | Number of centers in basis integrals           :       325
  | Number of centers in integrals                 :       143
  | Consuming       1030 KiB for k_phase.
  | Number of super-cells :                  76
  | Size of matrix packed + index :      285633
  Partitioning the integration grid into batches with parallel hashing+maxmin method.
  | Number of batches:     1531
  | Maximal batch size:     124
  | Minimal batch size:      60
  | Average batch size:      71.044
  | Standard deviation of batch sizes:       4.629

  Integration load balanced across    16 MPI tasks.
  Work distribution over tasks is as follows:
  Task     0 has       6829 integration points.
  Task     1 has       6800 integration points.
  Task     2 has       6797 integration points.
  Task     3 has       6761 integration points.
  Task     4 has       6832 integration points.
  Task     5 has       6829 integration points.
  Task     6 has       6798 integration points.
  Task     7 has       6761 integration points.
  Task     8 has       6824 integration points.
  Task     9 has       6778 integration points.
  Task    10 has       6800 integration points.
  Task    11 has       6779 integration points.
  Task    12 has       6760 integration points.
  Task    13 has       6795 integration points.
  Task    14 has       6799 integration points.
  Task    15 has       6826 integration points.
  Initializing partition tables, free-atom densities, potentials, etc. across the integration grid (initialize_grid_storage).
  | initialize_grid_storage: Actual outermost partition radius vs. multipole_radius_free
  | (-- VB: in principle, multipole_radius_free should be larger, hence this output)
  | Species        1: outer_partition_radius =              4.999999999999999 AA, multipole_radius_free =              5.023853058462528 AA.
  | Original list of interatomic distances with         325 x        325 entries is created.
  | Net number of integration points:   108768
  | of which are non-zero points    :   102844
  | Average free-atom electrostatic potential              :    -14.89972022 eV
  Obtaining max. number of non-zero basis functions in each batch (get_n_compute_maxes).
  | Maximal number of non-zero basis functions:      519 in task     0
  | Maximal number of non-zero basis functions:      528 in task     1
  | Maximal number of non-zero basis functions:      519 in task     2
  | Maximal number of non-zero basis functions:      518 in task     3
  | Maximal number of non-zero basis functions:      527 in task     4
  | Maximal number of non-zero basis functions:      522 in task     5
  | Maximal number of non-zero basis functions:      525 in task     6
  | Maximal number of non-zero basis functions:      513 in task     7
  | Maximal number of non-zero basis functions:      549 in task     8
  | Maximal number of non-zero basis functions:      525 in task     9
  | Maximal number of non-zero basis functions:      527 in task    10
  | Maximal number of non-zero basis functions:      525 in task    11
  | Maximal number of non-zero basis functions:      552 in task    12
  | Maximal number of non-zero basis functions:      511 in task    13
  | Maximal number of non-zero basis functions:      522 in task    14
  | Maximal number of non-zero basis functions:      521 in task    15
  Integrating Hamiltonian matrix: batch-based integration.
  Time summed over all CPUs for integration: real work        9.814 s, elapsed        9.955 s
  Integrating overlap matrix.
  Time summed over all CPUs for integration: real work        7.268 s, elapsed        7.390 s
  Decreasing sparse matrix size:
   Tolerance:  9.999999824516700E-014
   Hamiltonian matrix
  | Array has   245990 nonzero elements out of   285633 elements
  | Sparsity factor is 0.139
   Overlap matrix
  | Array has   225763 nonzero elements out of   285633 elements
  | Sparsity factor is 0.210
  New size of hamiltonian matrix:      246715

  Updating Kohn-Sham eigenvalues, eigenvectors, occupation numbers, and Fermi level.
  Solving generalized eigenproblem
  Transforming overlap matrix and checking for singularities.
  Overlap matrix is nonsingular at first k-point:
  | Lowest eigenvalue:  0.867595E-03
  Determining occupation numbers for Kohn-Sham eigenstates.
  | Chemical potential (Fermi level) in eV                 : -.53906961E+01
  | Error in electron count due to remaining E_F inaccuracy: -.85037755E-09
  | Maximum occupation number of highest empty state:  0.00E+00

  Writing Kohn-Sham eigenvalues.
  K-point:       1 at    0.000000    0.000000    0.000000 (in units of recip. lattice)

  State    Occupation    Eigenvalue [Ha]    Eigenvalue [eV]
      1       2.00000        -407.291275       -11082.95950
      2       2.00000        -407.291275       -11082.95950
      3       2.00000        -407.291193       -11082.95726
      4       2.00000        -407.291191       -11082.95719
      5       2.00000        -407.291191       -11082.95719
      6       2.00000        -407.291191       -11082.95719
      7       2.00000        -407.291107       -11082.95492
      8       2.00000        -407.291107       -11082.95492
      9       2.00000         -50.433338        -1372.36095
     10       2.00000         -50.433338        -1372.36095
     11       2.00000         -50.433254        -1372.35867
     12       2.00000         -50.433252        -1372.35860
     13       2.00000         -50.433252        -1372.35860
     14       2.00000         -50.433252        -1372.35860
     15       2.00000         -50.433166        -1372.35628
     16       2.00000         -50.433166        -1372.35628
     17       2.00000         -44.114414        -1200.41427
     18       2.00000         -44.114414        -1200.41427
     19       2.00000         -44.114411        -1200.41421
     20       2.00000         -44.114411        -1200.41421
     21       2.00000         -44.114411        -1200.41421
     22       2.00000         -44.114411        -1200.41421
     23       2.00000         -44.114332        -1200.41205
     24       2.00000         -44.114328        -1200.41195
     25       2.00000         -44.114326        -1200.41189
     26       2.00000         -44.114326        -1200.41189
     27       2.00000         -44.114326        -1200.41189
     28       2.00000         -44.114326        -1200.41189
     29       2.00000         -44.114326        -1200.41189
     30       2.00000         -44.114326        -1200.41189
     31       2.00000         -44.114326        -1200.41189
     32       2.00000         -44.114326        -1200.41189
     33       2.00000         -44.114326        -1200.41189
     34       2.00000         -44.114325        -1200.41185
     35       2.00000         -44.114242        -1200.40960
     36       2.00000         -44.114242        -1200.40960
     37       2.00000         -44.114242        -1200.40960
     38       2.00000         -44.114242        -1200.40960
     39       2.00000         -44.114240        -1200.40954
     40       2.00000         -44.114240        -1200.40953
     41       2.00000          -6.173714         -167.99529
     42       2.00000          -6.173702         -167.99499
     43       2.00000          -6.173604         -167.99232
     44       2.00000          -6.173602         -167.99226
     45       2.00000          -6.173602         -167.99226
     46       2.00000          -6.173602         -167.99226
     47       2.00000          -6.173503         -167.98957
     48       2.00000          -6.173492         -167.98927
     49       2.00000          -4.249423         -115.63270
     50       2.00000          -4.249387         -115.63171
     51       2.00000          -4.249376         -115.63140
     52       2.00000          -4.249376         -115.63139
     53       2.00000          -4.249361         -115.63100
     54       2.00000          -4.249324         -115.62999
     55       2.00000          -4.249297         -115.62926
     56       2.00000          -4.249277         -115.62870
     57       2.00000          -4.249244         -115.62781
     58       2.00000          -4.249139         -115.62495
     59       2.00000          -4.249126         -115.62459
     60       2.00000          -4.249125         -115.62457
     61       2.00000          -4.249125         -115.62456
     62       2.00000          -4.249121         -115.62446
     63       2.00000          -4.249110         -115.62416
     64       2.00000          -4.248998         -115.62113
     65       2.00000          -4.248973         -115.62043
     66       2.00000          -4.248951         -115.61984
     67       2.00000          -4.248926         -115.61916
     68       2.00000          -4.248888         -115.61812
     69       2.00000          -4.248878         -115.61785
     70       2.00000          -4.248873         -115.61772
     71       2.00000          -4.248862         -115.61743
     72       2.00000          -4.248838         -115.61677
     73       2.00000          -1.105748          -30.08893
     74       2.00000          -1.105633          -30.08580
     75       2.00000          -1.105625          -30.08560
     76       2.00000          -1.105618          -30.08540
     77       2.00000          -1.105606          -30.08508
     78       2.00000          -1.105498          -30.08213
     79       2.00000          -1.104378          -30.05165
     80       2.00000          -1.104355          -30.05103
     81       2.00000          -1.104309          -30.04977
     82       2.00000          -1.102524          -30.00122
     83       2.00000          -1.102518          -30.00103
     84       2.00000          -1.102148          -29.99096
     85       2.00000          -1.102120          -29.99022
     86       2.00000          -1.102110          -29.98993
     87       2.00000          -1.102107          -29.98986
     88       2.00000          -1.102102          -29.98973
     89       2.00000          -1.102057          -29.98851
     90       2.00000          -1.098127          -29.88155
     91       2.00000          -1.098111          -29.88112
     92       2.00000          -1.098077          -29.88021
     93       2.00000          -1.098077          -29.88020
     94       2.00000          -1.098044          -29.87929
     95       2.00000          -1.098028          -29.87888
     96       2.00000          -1.096056          -29.82521
     97       2.00000          -1.096056          -29.82520
     98       2.00000          -1.096025          -29.82437
     99       2.00000          -1.096025          -29.82437
    100       2.00000          -1.095994          -29.82350
    101       2.00000          -1.095990          -29.82341
    102       2.00000          -1.094626          -29.78630
    103       2.00000          -1.094624          -29.78625
    104       2.00000          -1.094623          -29.78621
    105       2.00000          -1.093865          -29.76558
    106       2.00000          -1.093864          -29.76556
    107       2.00000          -1.092564          -29.73018
    108       2.00000          -1.092529          -29.72922
    109       2.00000          -1.092528          -29.72921
    110       2.00000          -1.092528          -29.72920
    111       2.00000          -1.092528          -29.72920
    112       2.00000          -1.092492          -29.72823
    113       2.00000          -0.669834          -18.22710
    114       2.00000          -0.527761          -14.36112
    115       2.00000          -0.527401          -14.35130
    116       2.00000          -0.527094          -14.34296
    117       2.00000          -0.527094          -14.34295
    118       2.00000          -0.526790          -14.33470
    119       2.00000          -0.526426          -14.32479
    120       2.00000          -0.309915           -8.43321
    121       2.00000          -0.309650           -8.42601
    122       2.00000          -0.309628           -8.42539
    123       2.00000          -0.309626           -8.42534
    124       2.00000          -0.309605           -8.42479
    125       2.00000          -0.309341           -8.41758
    126       2.00000          -0.199295           -5.42310
    127       1.99578          -0.198848           -5.41093
    128       1.74293          -0.198399           -5.39871
    129       0.26129          -0.197813           -5.38275
    130       0.00000          -0.163727           -4.45524
    131       0.00000          -0.163576           -4.45113
    132       0.00000          -0.163260           -4.44254
    133       0.00000          -0.163259           -4.44251
    134       0.00000          -0.162946           -4.43400
    135       0.00000          -0.162798           -4.42995
    136       0.00000          -0.098383           -2.67713
    137       0.00000          -0.098052           -2.66812
    138       0.00000          -0.097721           -2.65912
    139       0.00000           0.087462            2.37996
    140       0.00000           0.164659            4.48059
    141       0.00000           0.165204            4.49543
    142       0.00000           0.165284            4.49760
    143       0.00000           0.165287            4.49770
    144       0.00000           0.165373            4.50004
    145       0.00000           0.165927            4.51510
    146       0.00000           0.196074            5.33545
    147       0.00000           0.196084            5.33573
    148       0.00000           0.261048            7.10347
    149       0.00000           0.261565            7.11755
    150       0.00000           0.261750            7.12257
    151       0.00000           0.261756            7.12275
    152       0.00000           0.261940            7.12774
    153       0.00000           0.262455            7.14177
    154       0.00000           0.305626            8.31649
    155       0.00000           0.306425            8.33823
    156       0.00000           0.306446            8.33881
    157       0.00000           0.306464            8.33932
    158       0.00000           0.306467            8.33940
    159       0.00000           0.307280            8.36150
    160       0.00000           0.411887           11.20802
    161       0.00000           0.412401           11.22200
    162       0.00000           0.412967           11.23742
    163       0.00000           0.431436           11.73996
    164       0.00000           0.432221           11.76133
    165       0.00000           0.432294           11.76332
    166       0.00000           0.432322           11.76408
    167       0.00000           0.432369           11.76535
    168       0.00000           0.433160           11.78689
    169       0.00000           0.628264           17.09595
    170       0.00000           0.628447           17.10092
    171       0.00000           0.628562           17.10405
    172       0.00000           0.628569           17.10424

  Highest occupied state (VBM) at     -5.39870994 eV (relative to internal zero)
  | Occupation number:      1.74292539
  | K-point:       1 at    0.000000    0.000000    0.000000 (in units of recip. lattice)

  Lowest unoccupied state (CBM) at    -5.38275286 eV (relative to internal zero)
  | Occupation number:      0.26129363
  | K-point:       1 at    0.000000    0.000000    0.000000 (in units of recip. lattice)

  Overall HOMO-LUMO gap:      0.01595708 eV between HOMO at k-point 1 and LUMO at k-point 1
  | This appears to be a direct band gap.
  However, the gap value is rather small. Since we use a finite k-point grid,
  this material is most likely metallic (in the sense that there are states
  at or near the Fermi level). A DOS and/or band structure plot is required
  for an unambiguous distinction.
  Calculating total energy contributions from superposition of free atom densities.

  Total energy components:
  | Sum of eigenvalues            :       -9844.71865844 Ha     -267888.42470909 eV
  | XC energy correction          :        -615.43668268 Ha      -16746.88420784 eV
  | XC potential correction       :         815.15665585 Ha       22181.54119006 eV
  | Free-atom electrostatic energy:       -7218.45968535 Ha     -196424.28199590 eV
  | Hartree energy correction     :           0.00000000 Ha           0.00000000 eV
  | Entropy correction            :          -0.00000006 Ha          -0.00000175 eV
  | ---------------------------
  | Total energy                  :      -16863.45837062 Ha     -458878.04972276 eV
  | Total energy, T -> 0          :      -16863.45837069 Ha     -458878.04972452 eV  <-- only rely on this value for actual (periodic) metals
  | Electronic free energy        :      -16863.45837075 Ha     -458878.04972627 eV

  Derived energy quantities:
  | Kinetic energy                :       17164.26366298 Ha      467063.37819285 eV
  | Electrostatic energy          :      -33412.28535093 Ha     -909194.54370778 eV
  | Energy correction for multipole
  | error in Hartree potential    :           0.00000000 Ha           0.00000000 eV
  | Sum of eigenvalues per atom                           :      -33486.05308864 eV
  | Total energy (T->0) per atom                          :      -57359.75621556 eV  <-- only rely on this value for actual (periodic) metals
  | Electronic free energy per atom                       :      -57359.75621578 eV
  Initialize hartree_potential_storage
  Max. number of atoms included in rho_multipole:            8

  End scf initialization - timings             :  max(cpu_time)    wall_clock(cpu1)
  | Time for scf. initialization               :        6.852 s           6.876 s
  | Boundary condition initialization          :        0.076 s           0.074 s
  | Integration                                :        1.104 s           1.105 s
  | Solution of K.-S. eqns.                    :        5.324 s           5.340 s
  | Grid partitioning                          :        0.092 s           0.090 s
  | Preloading free-atom quantities on grid    :        0.008 s           0.005 s
  | Free-atom superposition energy             :        0.040 s           0.040 s
  | Total energy evaluation                    :        0.004 s           0.004 s
------------------------------------------------------------

------------------------------------------------------------
          Begin self-consistency iteration #    1

  Date     :  20130211, Time     :  174628.863
------------------------------------------------------------
  Evaluating new KS density using the density matrix
  Evaluating density matrix
  Time summed over all CPUs for getting density from density matrix: real work       10.034 s, elapsed       10.142 s
  Integration grid: deviation in total charge (<rho> - N_e) =  -4.352216E-10
  Pulay mixing of updated and previous charge densities.

  Evaluating partitioned Hartree potential by multipole expansion.
  | Analytical far-field extrapolation by fixed multipoles:
  | Hartree multipole sum: apparent total charge =   0.410370E-02
  Summing up the Hartree potential.
  | Estimated reciprocal-space cutoff momentum G_max:         3.15033928 bohr^-1 .
  | Reciprocal lattice points for long-range Hartree potential:     618
  Time summed over all CPUs for potential: real work        5.285 s, elapsed        5.406 s
  | RMS charge density error from multipole expansion :   0.636512E-02
  | Average real-space part of the electrostatic potential :      0.09457228 eV

  Integrating Hamiltonian matrix: batch-based integration.
  Time summed over all CPUs for integration: real work        9.731 s, elapsed        9.835 s

  Updating Kohn-Sham eigenvalues, eigenvectors, occupation numbers, and Fermi level.
  Solving generalized eigenproblem
  Determining occupation numbers for Kohn-Sham eigenstates.
  | Chemical potential (Fermi level) in eV                 : -.52552753E+01
  | Error in electron count due to remaining E_F inaccuracy: -.28421709E-12
  | Maximum occupation number of highest empty state:  0.00E+00

  Writing Kohn-Sham eigenvalues.
  K-point:       1 at    0.000000    0.000000    0.000000 (in units of recip. lattice)

  State    Occupation    Eigenvalue [Ha]    Eigenvalue [eV]
      1       2.00000        -407.295219       -11083.06680
      2       2.00000        -407.295219       -11083.06680
      3       2.00000        -407.295095       -11083.06343
      4       2.00000        -407.295093       -11083.06339
      5       2.00000        -407.295092       -11083.06336
      6       2.00000        -407.295092       -11083.06336
      7       2.00000        -407.294967       -11083.05995
      8       2.00000        -407.294967       -11083.05995
      9       2.00000         -50.437803        -1372.48246
     10       2.00000         -50.437803        -1372.48246
     11       2.00000         -50.437672        -1372.47887
     12       2.00000         -50.437670        -1372.47883
     13       2.00000         -50.437669        -1372.47880
     14       2.00000         -50.437669        -1372.47880
     15       2.00000         -50.437536        -1372.47518
     16       2.00000         -50.437536        -1372.47518
     17       2.00000         -44.118862        -1200.53531
     18       2.00000         -44.118862        -1200.53530
     19       2.00000         -44.118861        -1200.53529
     20       2.00000         -44.118861        -1200.53529
     21       2.00000         -44.118861        -1200.53529
     22       2.00000         -44.118861        -1200.53529
     23       2.00000         -44.118732        -1200.53179
     24       2.00000         -44.118730        -1200.53174
     25       2.00000         -44.118730        -1200.53173
     26       2.00000         -44.118729        -1200.53169
     27       2.00000         -44.118729        -1200.53169
     28       2.00000         -44.118728        -1200.53167
     29       2.00000         -44.118728        -1200.53167
     30       2.00000         -44.118728        -1200.53167
     31       2.00000         -44.118728        -1200.53167
     32       2.00000         -44.118728        -1200.53166
     33       2.00000         -44.118728        -1200.53166
     34       2.00000         -44.118728        -1200.53166
     35       2.00000         -44.118596        -1200.52808
     36       2.00000         -44.118596        -1200.52808
     37       2.00000         -44.118596        -1200.52807
     38       2.00000         -44.118596        -1200.52807
     39       2.00000         -44.118595        -1200.52807
     40       2.00000         -44.118595        -1200.52806
     41       2.00000          -6.173913         -168.00073
     42       2.00000          -6.173905         -168.00051
     43       2.00000          -6.173767         -167.99676
     44       2.00000          -6.173766         -167.99671
     45       2.00000          -6.173765         -167.99669
     46       2.00000          -6.173765         -167.99669
     47       2.00000          -6.173626         -167.99290
     48       2.00000          -6.173618         -167.99269
     49       2.00000          -4.249364         -115.63107
     50       2.00000          -4.249340         -115.63044
     51       2.00000          -4.249329         -115.63013
     52       2.00000          -4.249320         -115.62989
     53       2.00000          -4.249308         -115.62956
     54       2.00000          -4.249275         -115.62866
     55       2.00000          -4.249209         -115.62685
     56       2.00000          -4.249190         -115.62634
     57       2.00000          -4.249170         -115.62580
     58       2.00000          -4.249061         -115.62283
     59       2.00000          -4.249055         -115.62267
     60       2.00000          -4.249054         -115.62263
     61       2.00000          -4.249054         -115.62263
     62       2.00000          -4.249050         -115.62253
     63       2.00000          -4.249047         -115.62245
     64       2.00000          -4.248931         -115.61931
     65       2.00000          -4.248917         -115.61892
     66       2.00000          -4.248898         -115.61839
     67       2.00000          -4.248833         -115.61663
     68       2.00000          -4.248799         -115.61570
     69       2.00000          -4.248792         -115.61551
     70       2.00000          -4.248778         -115.61513
     71       2.00000          -4.248769         -115.61489
     72       2.00000          -4.248754         -115.61448
     73       2.00000          -1.104952          -30.06727
     74       2.00000          -1.104832          -30.06402
     75       2.00000          -1.104822          -30.06373
     76       2.00000          -1.104814          -30.06352
     77       2.00000          -1.104803          -30.06321
     78       2.00000          -1.104683          -30.05996
     79       2.00000          -1.103571          -30.02970
     80       2.00000          -1.103556          -30.02930
     81       2.00000          -1.103510          -30.02804
     82       2.00000          -1.101922          -29.98482
     83       2.00000          -1.101913          -29.98459
     84       2.00000          -1.101454          -29.97208
     85       2.00000          -1.101445          -29.97184
     86       2.00000          -1.101421          -29.97120
     87       2.00000          -1.101418          -29.97112
     88       2.00000          -1.101405          -29.97076
     89       2.00000          -1.101372          -29.96985
     90       2.00000          -1.097584          -29.86679
     91       2.00000          -1.097545          -29.86573
     92       2.00000          -1.097513          -29.86485
     93       2.00000          -1.097512          -29.86483
     94       2.00000          -1.097479          -29.86392
     95       2.00000          -1.097443          -29.86293
     96       2.00000          -1.095462          -29.80902
     97       2.00000          -1.095452          -29.80876
     98       2.00000          -1.095422          -29.80796
     99       2.00000          -1.095422          -29.80794
    100       2.00000          -1.095391          -29.80710
    101       2.00000          -1.095373          -29.80663
    102       2.00000          -1.093999          -29.76924
    103       2.00000          -1.093993          -29.76908
    104       2.00000          -1.093992          -29.76903
    105       2.00000          -1.093344          -29.75140
    106       2.00000          -1.093343          -29.75137
    107       2.00000          -1.091967          -29.71393
    108       2.00000          -1.091918          -29.71260
    109       2.00000          -1.091915          -29.71252
    110       2.00000          -1.091914          -29.71248
    111       2.00000          -1.091909          -29.71237
    112       2.00000          -1.091862          -29.71108
    113       2.00000          -0.665783          -18.11687
    114       2.00000          -0.523252          -14.23842
    115       2.00000          -0.522922          -14.22943
    116       2.00000          -0.522594          -14.22049
    117       2.00000          -0.522593          -14.22049
    118       2.00000          -0.522268          -14.21163
    119       2.00000          -0.521934          -14.20255
    120       2.00000          -0.306147           -8.33067
    121       2.00000          -0.305901           -8.32399
    122       2.00000          -0.305867           -8.32307
    123       2.00000          -0.305865           -8.32302
    124       2.00000          -0.305834           -8.32217
    125       2.00000          -0.305588           -8.31547
    126       1.99998          -0.194251           -5.28584
    127       1.99062          -0.193803           -5.27365
    128       1.61119          -0.193352           -5.26137
    129       0.39820          -0.192908           -5.24930
    130       0.00000          -0.162520           -4.42239
    131       0.00000          -0.162352           -4.41783
    132       0.00000          -0.162030           -4.40907
    133       0.00000          -0.162029           -4.40903
    134       0.00000          -0.161709           -4.40033
    135       0.00000          -0.161545           -4.39585
    136       0.00000          -0.095926           -2.61027
    137       0.00000          -0.095589           -2.60112
    138       0.00000          -0.095254           -2.59198
    139       0.00000           0.087946            2.39313
    140       0.00000           0.168343            4.58085
    141       0.00000           0.168892            4.59580
    142       0.00000           0.168969            4.59789
    143       0.00000           0.168974            4.59802
    144       0.00000           0.169058            4.60031
    145       0.00000           0.169616            4.61548
    146       0.00000           0.198374            5.39804
    147       0.00000           0.198385            5.39833
    148       0.00000           0.264950            7.20966
    149       0.00000           0.265474            7.22393
    150       0.00000           0.265653            7.22879
    151       0.00000           0.265660            7.22898
    152       0.00000           0.265837            7.23381
    153       0.00000           0.266359            7.24800
    154       0.00000           0.308765            8.40193
    155       0.00000           0.309579            8.42408
    156       0.00000           0.309591            8.42439
    157       0.00000           0.309599            8.42461
    158       0.00000           0.309613            8.42500
    159       0.00000           0.310430            8.44722
    160       0.00000           0.413433           11.25010
    161       0.00000           0.413955           11.26428
    162       0.00000           0.414527           11.27985
    163       0.00000           0.434255           11.81669
    164       0.00000           0.435031           11.83779
    165       0.00000           0.435116           11.84010
    166       0.00000           0.435142           11.84083
    167       0.00000           0.435202           11.84245
    168       0.00000           0.435984           11.86374
    169       0.00000           0.630518           17.15726
    170       0.00000           0.630692           17.16201
    171       0.00000           0.630812           17.16527
    172       0.00000           0.630818           17.16544

  Highest occupied state (VBM) at     -5.26136899 eV (relative to internal zero)
  | Occupation number:      1.61119239
  | K-point:       1 at    0.000000    0.000000    0.000000 (in units of recip. lattice)

  Lowest unoccupied state (CBM) at    -5.24930135 eV (relative to internal zero)
  | Occupation number:      0.39820016
  | K-point:       1 at    0.000000    0.000000    0.000000 (in units of recip. lattice)

  Overall HOMO-LUMO gap:      0.01206764 eV between HOMO at k-point 1 and LUMO at k-point 1
  | This appears to be a direct band gap.
  However, the gap value is rather small. Since we use a finite k-point grid,
  this material is most likely metallic (in the sense that there are states
  at or near the Fermi level). A DOS and/or band structure plot is required
  for an unambiguous distinction.

  Total energy components:
  | Sum of eigenvalues            :       -9844.88007133 Ha     -267892.81697748 eV
  | XC energy correction          :        -615.37089257 Ha      -16745.09396795 eV
  | XC potential correction       :         815.06885391 Ha       22179.15197766 eV
  | Free-atom electrostatic energy:       -7218.45968535 Ha     -196424.28199590 eV
  | Hartree energy correction     :           0.19381945 Ha           5.27409548 eV
  | Entropy correction            :          -0.00000009 Ha          -0.00000232 eV
  | ---------------------------
  | Total energy                  :      -16863.44797591 Ha     -458877.76686818 eV
  | Total energy, T -> 0          :      -16863.44797599 Ha     -458877.76687050 eV  <-- only rely on this value for actual (periodic) metals
  | Electronic free energy        :      -16863.44797608 Ha     -458877.76687283 eV

  Derived energy quantities:
  | Kinetic energy                :       17163.02548481 Ha      467029.68565044 eV
  | Electrostatic energy          :      -33411.10256814 Ha     -909162.35855067 eV
  | Energy correction for multipole
  | error in Hartree potential    :           0.02368764 Ha           0.64457359 eV
  | Sum of eigenvalues per atom                           :      -33486.60212219 eV
  | Total energy (T->0) per atom                          :      -57359.72085881 eV  <-- only rely on this value for actual (periodic) metals
  | Electronic free energy per atom                       :      -57359.72085910 eV

  Self-consistency convergence accuracy:
  | Change of charge density      : 0.1656E+00
  | Change of sum of eigenvalues  : -.4392E+01 eV
  | Change of total energy        : 0.2829E+00 eV

  End self-consistency iteration #     1       :  max(cpu_time)    wall_clock(cpu1)
  | Time for this iteration                    :        4.296 s           4.315 s
  | Charge density update                      :        0.912 s           0.915 s
  | Density mixing & preconditioning           :        0.060 s           0.062 s
  | Hartree multipole update                   :        0.004 s           0.004 s
  | Hartree multipole summation                :        0.348 s           0.348 s
  | Integration                                :        0.620 s           0.622 s
  | Solution of K.-S. eqns.                    :        2.352 s           2.357 s
  | Total energy evaluation                    :        0.004 s           0.002 s
------------------------------------------------------------

------------------------------------------------------------
          Begin self-consistency iteration #    2

  Date     :  20130211, Time     :  174633.181
------------------------------------------------------------
  Evaluating new KS density using the density matrix
  Evaluating density matrix
  Time summed over all CPUs for getting density from density matrix: real work       10.039 s, elapsed       10.172 s
  Integration grid: deviation in total charge (<rho> - N_e) =   4.149001E-10
  Pulay mixing of updated and previous charge densities.

  Evaluating partitioned Hartree potential by multipole expansion.
  | Analytical far-field extrapolation by fixed multipoles:
  | Hartree multipole sum: apparent total charge =   0.113555E-01
  Summing up the Hartree potential.
  Time summed over all CPUs for potential: real work        5.356 s, elapsed        5.482 s
  | RMS charge density error from multipole expansion :   0.153046E-01
  | Average real-space part of the electrostatic potential :      0.21296492 eV

  Integrating Hamiltonian matrix: batch-based integration.
  Time summed over all CPUs for integration: real work        9.744 s, elapsed        9.888 s

  Updating Kohn-Sham eigenvalues, eigenvectors, occupation numbers, and Fermi level.
  Solving generalized eigenproblem
  Determining occupation numbers for Kohn-Sham eigenstates.
  | Chemical potential (Fermi level) in eV                 : -.50814484E+01
  | Error in electron count due to remaining E_F inaccuracy: 0.63664629E-11
  | Maximum occupation number of highest empty state:  0.00E+00

  Highest occupied state (VBM) at     -5.08267227 eV (relative to internal zero)
  | Occupation number:      1.13740797
  | K-point:       1 at    0.000000    0.000000    0.000000 (in units of recip. lattice)

  Lowest unoccupied state (CBM) at    -5.08107174 eV (relative to internal zero)
  | Occupation number:      0.95751435
  | K-point:       1 at    0.000000    0.000000    0.000000 (in units of recip. lattice)

  Overall HOMO-LUMO gap:      0.00160053 eV between HOMO at k-point 1 and LUMO at k-point 1
  | This appears to be a direct band gap.
  However, the gap value is rather small. Since we use a finite k-point grid,
  this material is most likely metallic (in the sense that there are states
  at or near the Fermi level). A DOS and/or band structure plot is required
  for an unambiguous distinction.

  Total energy components:
  | Sum of eigenvalues            :       -9844.81569518 Ha     -267891.06521316 eV
  | XC energy correction          :        -615.31943555 Ha      -16743.69375098 eV
  | XC potential correction       :         814.99991638 Ha       22177.27609217 eV
  | Free-atom electrostatic energy:       -7218.45968535 Ha     -196424.28199590 eV
  | Hartree energy correction     :           0.15164651 Ha           4.12651137 eV
  | Entropy correction            :          -0.00000013 Ha          -0.00000365 eV
  | ---------------------------
  | Total energy                  :      -16863.44325319 Ha     -458877.63835650 eV
  | Total energy, T -> 0          :      -16863.44325332 Ha     -458877.63836014 eV  <-- only rely on this value for actual (periodic) metals
  | Electronic free energy        :      -16863.44325346 Ha     -458877.63836379 eV

  Derived energy quantities:
  | Kinetic energy                :       17161.93251444 Ha      466999.94441348 eV
  | Electrostatic energy          :      -33410.05633208 Ha     -909133.88901900 eV
  | Energy correction for multipole
  | error in Hartree potential    :           0.05726444 Ha           1.55824483 eV
  | Sum of eigenvalues per atom                           :      -33486.38315164 eV
  | Total energy (T->0) per atom                          :      -57359.70479502 eV  <-- only rely on this value for actual (periodic) metals
  | Electronic free energy per atom                       :      -57359.70479547 eV

  Self-consistency convergence accuracy:
  | Change of charge density      : 0.9741E-01
  | Change of sum of eigenvalues  : 0.1752E+01 eV
  | Change of total energy        : 0.1285E+00 eV

  End self-consistency iteration #     2       :  max(cpu_time)    wall_clock(cpu1)
  | Time for this iteration                    :        4.304 s           4.317 s
  | Charge density update                      :        0.920 s           0.923 s
  | Density mixing & preconditioning           :        0.060 s           0.059 s
  | Hartree multipole update                   :        0.004 s           0.002 s
  | Hartree multipole summation                :        0.352 s           0.351 s
  | Integration                                :        0.624 s           0.625 s
  | Solution of K.-S. eqns.                    :        2.344 s           2.350 s
  | Total energy evaluation                    :        0.004 s           0.004 s
------------------------------------------------------------

------------------------------------------------------------
          Begin self-consistency iteration #    3

  Date     :  20130211, Time     :  174637.501
------------------------------------------------------------
  Evaluating new KS density using the density matrix
  Evaluating density matrix
  Time summed over all CPUs for getting density from density matrix: real work       10.002 s, elapsed       10.131 s
  Integration grid: deviation in total charge (<rho> - N_e) =   4.215508E-10
  Pulay mixing of updated and previous charge densities.

  Evaluating partitioned Hartree potential by multipole expansion.
  | Analytical far-field extrapolation by fixed multipoles:
  | Hartree multipole sum: apparent total charge =   0.140110E-01
  Summing up the Hartree potential.
  Time summed over all CPUs for potential: real work        5.364 s, elapsed        5.467 s
  | RMS charge density error from multipole expansion :   0.167641E-01
  | Average real-space part of the electrostatic potential :      0.21043003 eV

  Integrating Hamiltonian matrix: batch-based integration.
  Time summed over all CPUs for integration: real work        9.738 s, elapsed        9.871 s

  Updating Kohn-Sham eigenvalues, eigenvectors, occupation numbers, and Fermi level.
  Solving generalized eigenproblem
  Determining occupation numbers for Kohn-Sham eigenstates.
  | Chemical potential (Fermi level) in eV                 : -.50864716E+01
  | Error in electron count due to remaining E_F inaccuracy: -.91205266E-10
  | Maximum occupation number of highest empty state:  0.00E+00

  Highest occupied state (VBM) at     -5.09338541 eV (relative to internal zero)
  | Occupation number:      1.67180797
  | K-point:       1 at    0.000000    0.000000    0.000000 (in units of recip. lattice)

  Lowest unoccupied state (CBM) at    -5.08257670 eV (relative to internal zero)
  | Occupation number:      0.58175658
  | K-point:       1 at    0.000000    0.000000    0.000000 (in units of recip. lattice)

  Overall HOMO-LUMO gap:      0.01080871 eV between HOMO at k-point 1 and LUMO at k-point 1
  | This appears to be a direct band gap.
  However, the gap value is rather small. Since we use a finite k-point grid,
  this material is most likely metallic (in the sense that there are states
  at or near the Fermi level). A DOS and/or band structure plot is required
  for an unambiguous distinction.

  Total energy components:
  | Sum of eigenvalues            :       -9844.70351647 Ha     -267888.01267505 eV
  | XC energy correction          :        -615.33525417 Ha      -16744.12419771 eV
  | XC potential correction       :         815.02106607 Ha       22177.85160449 eV
  | Free-atom electrostatic energy:       -7218.45968535 Ha     -196424.28199590 eV
  | Hartree energy correction     :           0.03447061 Ha           0.93799301 eV
  | Entropy correction            :          -0.00000012 Ha          -0.00000328 eV
  | ---------------------------
  | Total energy                  :      -16863.44291931 Ha     -458877.62927116 eV
  | Total energy, T -> 0          :      -16863.44291943 Ha     -458877.62927444 eV  <-- only rely on this value for actual (periodic) metals
  | Electronic free energy        :      -16863.44291955 Ha     -458877.62927772 eV

  Derived energy quantities:
  | Kinetic energy                :       17162.45452709 Ha      467014.14910038 eV
  | Electrostatic energy          :      -33410.56219223 Ha     -909147.65417382 eV
  | Energy correction for multipole
  | error in Hartree potential    :           0.06295007 Ha           1.71295849 eV
  | Sum of eigenvalues per atom                           :      -33486.00158438 eV
  | Total energy (T->0) per atom                          :      -57359.70365931 eV  <-- only rely on this value for actual (periodic) metals
  | Electronic free energy per atom                       :      -57359.70365972 eV

  Self-consistency convergence accuracy:
  | Change of charge density      : 0.2106E-01
  | Change of sum of eigenvalues  : 0.3053E+01 eV
  | Change of total energy        : 0.9085E-02 eV

  End self-consistency iteration #     3       :  max(cpu_time)    wall_clock(cpu1)
  | Time for this iteration                    :        4.300 s           4.311 s
  | Charge density update                      :        0.920 s           0.920 s
  | Density mixing & preconditioning           :        0.056 s           0.055 s
  | Hartree multipole update                   :        0.004 s           0.002 s
  | Hartree multipole summation                :        0.348 s           0.350 s
  | Integration                                :        0.624 s           0.624 s
  | Solution of K.-S. eqns.                    :        2.348 s           2.353 s
  | Total energy evaluation                    :        0.004 s           0.004 s
------------------------------------------------------------

------------------------------------------------------------
          Begin self-consistency iteration #    4

  Date     :  20130211, Time     :  174641.816
------------------------------------------------------------
  Evaluating new KS density using the density matrix
  Evaluating density matrix
  Time summed over all CPUs for getting density from density matrix: real work       10.019 s, elapsed       10.168 s
  Integration grid: deviation in total charge (<rho> - N_e) =   3.238938E-10
  Pulay mixing of updated and previous charge densities.

  Evaluating partitioned Hartree potential by multipole expansion.
  | Analytical far-field extrapolation by fixed multipoles:
  | Hartree multipole sum: apparent total charge =   0.143603E-01
  Summing up the Hartree potential.
  Time summed over all CPUs for potential: real work        5.361 s, elapsed        5.466 s
  | RMS charge density error from multipole expansion :   0.169394E-01
  | Average real-space part of the electrostatic potential :      0.20525029 eV

  Integrating Hamiltonian matrix: batch-based integration.
  Time summed over all CPUs for integration: real work        9.732 s, elapsed        9.868 s

  Updating Kohn-Sham eigenvalues, eigenvectors, occupation numbers, and Fermi level.
  Solving generalized eigenproblem
  Determining occupation numbers for Kohn-Sham eigenstates.
  | Chemical potential (Fermi level) in eV                 : -.50951118E+01
  | Error in electron count due to remaining E_F inaccuracy: -.29170053E-08
  | Maximum occupation number of highest empty state:  0.00E+00

  Highest occupied state (VBM) at     -5.10225568 eV (relative to internal zero)
  | Occupation number:      1.68764728
  | K-point:       1 at    0.000000    0.000000    0.000000 (in units of recip. lattice)

  Lowest unoccupied state (CBM) at    -5.09018091 eV (relative to internal zero)
  | Occupation number:      0.48559511
  | K-point:       1 at    0.000000    0.000000    0.000000 (in units of recip. lattice)

  Overall HOMO-LUMO gap:      0.01207476 eV between HOMO at k-point 1 and LUMO at k-point 1
  | This appears to be a direct band gap.
  However, the gap value is rather small. Since we use a finite k-point grid,
  this material is most likely metallic (in the sense that there are states
  at or near the Fermi level). A DOS and/or band structure plot is required
  for an unambiguous distinction.

  Total energy components:
  | Sum of eigenvalues            :       -9844.90248187 Ha     -267893.42679906 eV
  | XC energy correction          :        -615.32849487 Ha      -16743.94026764 eV
  | XC potential correction       :         815.01216326 Ha       22177.60934668 eV
  | Free-atom electrostatic energy:       -7218.45968535 Ha     -196424.28199590 eV
  | Hartree energy correction     :           0.23567122 Ha           6.41294020 eV
  | Entropy correction            :          -0.00000011 Ha          -0.00000293 eV
  | ---------------------------
  | Total energy                  :      -16863.44282760 Ha     -458877.62677572 eV
  | Total energy, T -> 0          :      -16863.44282771 Ha     -458877.62677865 eV  <-- only rely on this value for actual (periodic) metals
  | Electronic free energy        :      -16863.44282782 Ha     -458877.62678158 eV

  Derived energy quantities:
  | Kinetic energy                :       17162.46093589 Ha      467014.32349266 eV
  | Electrostatic energy          :      -33410.57526863 Ha     -909148.01000075 eV
  | Energy correction for multipole
  | error in Hartree potential    :           0.06368091 Ha           1.73284573 eV
  | Sum of eigenvalues per atom                           :      -33486.67834988 eV
  | Total energy (T->0) per atom                          :      -57359.70334733 eV  <-- only rely on this value for actual (periodic) metals
  | Electronic free energy per atom                       :      -57359.70334770 eV

  Self-consistency convergence accuracy:
  | Change of charge density      : 0.3236E-02
  | Change of sum of eigenvalues  : -.5414E+01 eV
  | Change of total energy        : 0.2495E-02 eV

  End self-consistency iteration #     4       :  max(cpu_time)    wall_clock(cpu1)
  | Time for this iteration                    :        4.292 s           4.299 s
  | Charge density update                      :        0.924 s           0.921 s
  | Density mixing & preconditioning           :        0.056 s           0.054 s
  | Hartree multipole update                   :        0.004 s           0.002 s
  | Hartree multipole summation                :        0.352 s           0.350 s
  | Integration                                :        0.624 s           0.624 s
  | Solution of K.-S. eqns.                    :        2.336 s           2.341 s
  | Total energy evaluation                    :        0.004 s           0.004 s
------------------------------------------------------------

------------------------------------------------------------
          Begin self-consistency iteration #    5

  Date     :  20130211, Time     :  174646.117
------------------------------------------------------------
  Evaluating new KS density using the density matrix
  Evaluating density matrix
  Time summed over all CPUs for getting density from density matrix: real work       10.002 s, elapsed       10.131 s
  Integration grid: deviation in total charge (<rho> - N_e) =  -2.501906E-09
  Pulay mixing of updated and previous charge densities.

  Evaluating partitioned Hartree potential by multipole expansion.
  | Analytical far-field extrapolation by fixed multipoles:
  | Hartree multipole sum: apparent total charge =   0.149798E-01
  Summing up the Hartree potential.
  Time summed over all CPUs for potential: real work        5.363 s, elapsed        5.466 s
  | RMS charge density error from multipole expansion :   0.169241E-01
  | Average real-space part of the electrostatic potential :      0.20516588 eV

  Integrating Hamiltonian matrix: batch-based integration.
  Time summed over all CPUs for integration: real work        9.729 s, elapsed        9.845 s

  Updating Kohn-Sham eigenvalues, eigenvectors, occupation numbers, and Fermi level.
  Solving generalized eigenproblem
  Determining occupation numbers for Kohn-Sham eigenstates.
  | Chemical potential (Fermi level) in eV                 : -.50949653E+01
  | Error in electron count due to remaining E_F inaccuracy: -.64170536E-09
  | Maximum occupation number of highest empty state:  0.00E+00

  Highest occupied state (VBM) at     -5.10215408 eV (relative to internal zero)
  | Occupation number:      1.69068123
  | K-point:       1 at    0.000000    0.000000    0.000000 (in units of recip. lattice)

  Lowest unoccupied state (CBM) at    -5.09008115 eV (relative to internal zero)
  | Occupation number:      0.48974326
  | K-point:       1 at    0.000000    0.000000    0.000000 (in units of recip. lattice)

  Overall HOMO-LUMO gap:      0.01207293 eV between HOMO at k-point 1 and LUMO at k-point 1
  | This appears to be a direct band gap.
  However, the gap value is rather small. Since we use a finite k-point grid,
  this material is most likely metallic (in the sense that there are states
  at or near the Fermi level). A DOS and/or band structure plot is required
  for an unambiguous distinction.

  Total energy components:
  | Sum of eigenvalues            :       -9844.88138165 Ha     -267892.85263295 eV
  | XC energy correction          :        -615.32942254 Ha      -16743.96551091 eV
  | XC potential correction       :         815.01339924 Ha       22177.64297925 eV
  | Free-atom electrostatic energy:       -7218.45968535 Ha     -196424.28199590 eV
  | Hartree energy correction     :           0.21426016 Ha           5.83031561 eV
  | Entropy correction            :          -0.00000011 Ha          -0.00000295 eV
  | ---------------------------
  | Total energy                  :      -16863.44283015 Ha     -458877.62684488 eV
  | Total energy, T -> 0          :      -16863.44283025 Ha     -458877.62684783 eV  <-- only rely on this value for actual (periodic) metals
  | Electronic free energy        :      -16863.44283036 Ha     -458877.62685078 eV

  Derived energy quantities:
  | Kinetic energy                :       17162.48580945 Ha      467015.00033677 eV
  | Electrostatic energy          :      -33410.59921706 Ha     -909148.66167075 eV
  | Energy correction for multipole
  | error in Hartree potential    :           0.06364446 Ha           1.73185389 eV
  | Sum of eigenvalues per atom                           :      -33486.60657912 eV
  | Total energy (T->0) per atom                          :      -57359.70335598 eV  <-- only rely on this value for actual (periodic) metals
  | Electronic free energy per atom                       :      -57359.70335635 eV

  Self-consistency convergence accuracy:
  | Change of charge density      : 0.4681E-03
  | Change of sum of eigenvalues  : 0.5742E+00 eV
  | Change of total energy        : -.6916E-04 eV

  End self-consistency iteration #     5       :  max(cpu_time)    wall_clock(cpu1)
  | Time for this iteration                    :        4.292 s           4.302 s
  | Charge density update                      :        0.912 s           0.913 s
  | Density mixing & preconditioning           :        0.056 s           0.054 s
  | Hartree multipole update                   :        0.004 s           0.001 s
  | Hartree multipole summation                :        0.352 s           0.350 s
  | Integration                                :        0.624 s           0.623 s
  | Solution of K.-S. eqns.                    :        2.348 s           2.355 s
  | Total energy evaluation                    :        0.004 s           0.003 s
------------------------------------------------------------

------------------------------------------------------------
          Begin self-consistency iteration #    6

  Date     :  20130211, Time     :  174650.422
------------------------------------------------------------
  Evaluating new KS density using the density matrix
  Evaluating density matrix
  Time summed over all CPUs for getting density from density matrix: real work       10.035 s, elapsed       10.188 s
  Integration grid: deviation in total charge (<rho> - N_e) =  -2.265779E-10
  Pulay mixing of updated and previous charge densities.

  Evaluating partitioned Hartree potential by multipole expansion.
  | Analytical far-field extrapolation by fixed multipoles:
  | Hartree multipole sum: apparent total charge =   0.154120E-01
  Summing up the Hartree potential.
  Time summed over all CPUs for potential: real work        5.363 s, elapsed        5.470 s
  | RMS charge density error from multipole expansion :   0.169430E-01
  | Average real-space part of the electrostatic potential :      0.20512077 eV

  Integrating Hamiltonian matrix: batch-based integration.
  Time summed over all CPUs for integration: real work        9.731 s, elapsed        9.840 s

  Updating Kohn-Sham eigenvalues, eigenvectors, occupation numbers, and Fermi level.
  Solving generalized eigenproblem
  Determining occupation numbers for Kohn-Sham eigenstates.
  | Chemical potential (Fermi level) in eV                 : -.50948955E+01
  | Error in electron count due to remaining E_F inaccuracy: -.75033313E-11
  | Maximum occupation number of highest empty state:  0.00E+00

  Highest occupied state (VBM) at     -5.10205088 eV (relative to internal zero)
  | Occupation number:      1.68842350
  | K-point:       1 at    0.000000    0.000000    0.000000 (in units of recip. lattice)

  Lowest unoccupied state (CBM) at    -5.08997553 eV (relative to internal zero)
  | Occupation number:      0.48655904
  | K-point:       1 at    0.000000    0.000000    0.000000 (in units of recip. lattice)

  Overall HOMO-LUMO gap:      0.01207535 eV between HOMO at k-point 1 and LUMO at k-point 1
  | This appears to be a direct band gap.
  However, the gap value is rather small. Since we use a finite k-point grid,
  this material is most likely metallic (in the sense that there are states
  at or near the Fermi level). A DOS and/or band structure plot is required
  for an unambiguous distinction.

  Total energy components:
  | Sum of eigenvalues            :       -9844.88955793 Ha     -267893.07512092 eV
  | XC energy correction          :        -615.32885967 Ha      -16743.95019432 eV
  | XC potential correction       :         815.01265626 Ha       22177.62276191 eV
  | Free-atom electrostatic energy:       -7218.45968535 Ha     -196424.28199590 eV
  | Hartree energy correction     :           0.22261954 Ha           6.05778588 eV
  | Entropy correction            :          -0.00000011 Ha          -0.00000293 eV
  | ---------------------------
  | Total energy                  :      -16863.44282715 Ha     -458877.62676334 eV
  | Total energy, T -> 0          :      -16863.44282726 Ha     -458877.62676627 eV  <-- only rely on this value for actual (periodic) metals
  | Electronic free energy        :      -16863.44282737 Ha     -458877.62676921 eV

  Derived energy quantities:
  | Kinetic energy                :       17162.48731270 Ha      467015.04124217 eV
  | Electrostatic energy          :      -33410.60128018 Ha     -909148.71781118 eV
  | Energy correction for multipole
  | error in Hartree potential    :           0.06373082 Ha           1.73420385 eV
  | Sum of eigenvalues per atom                           :      -33486.63439011 eV
  | Total energy (T->0) per atom                          :      -57359.70334578 eV  <-- only rely on this value for actual (periodic) metals
  | Electronic free energy per atom                       :      -57359.70334615 eV

  Self-consistency convergence accuracy:
  | Change of charge density      : 0.2156E-03
  | Change of sum of eigenvalues  : -.2225E+00 eV
  | Change of total energy        : 0.8154E-04 eV

  End self-consistency iteration #     6       :  max(cpu_time)    wall_clock(cpu1)
  | Time for this iteration                    :        4.292 s           4.301 s
  | Charge density update                      :        0.928 s           0.926 s
  | Density mixing & preconditioning           :        0.052 s           0.053 s
  | Hartree multipole update                   :        0.004 s           0.002 s
  | Hartree multipole summation                :        0.352 s           0.350 s
  | Integration                                :        0.624 s           0.622 s
  | Solution of K.-S. eqns.                    :        2.336 s           2.341 s
  | Total energy evaluation                    :        0.004 s           0.004 s
------------------------------------------------------------

------------------------------------------------------------
          Begin self-consistency iteration #    7

[...]
   ----------------------------------------------------------------
   Total forces(   1)            : -.116812E+00 -.516822E-07 -.151654E-07
  atom #    2
   Hellmann-Feynman + Multipole  : -.307928E+00 -.269025E-07 -.275270E-07
   Pulay + GGA                   : 0.293616E+00 0.115050E-07 0.155083E-06
   ----------------------------------------------------------------
   Total forces(   2)            : -.143121E-01 -.153976E-07 0.127556E-06
  atom #    3
   Hellmann-Feynman + Multipole  : 0.338477E-01 0.106071E-09 -.276786E-07
   Pulay + GGA                   : -.256601E-01 -.312411E-07 -.161023E-06
   ----------------------------------------------------------------
   Total forces(   3)            : 0.818763E-02 -.311350E-07 -.188701E-06
  atom #    4
   Hellmann-Feynman + Multipole  : 0.338478E-01 -.277295E-07 -.282997E-09
   Pulay + GGA                   : -.256602E-01 0.143204E-06 -.561217E-07
   ----------------------------------------------------------------
   Total forces(   4)            : 0.818762E-02 0.115474E-06 -.564047E-07
  atom #    5
   Hellmann-Feynman + Multipole  : 0.134739E+00 0.457225E-01 0.457225E-01
   Pulay + GGA                   : -.105913E+00 -.232362E-01 -.232361E-01
   ----------------------------------------------------------------
   Total forces(   5)            : 0.288265E-01 0.224863E-01 0.224864E-01
  atom #    6
   Hellmann-Feynman + Multipole  : 0.134739E+00 -.457225E-01 -.457225E-01
   Pulay + GGA                   : -.105913E+00 0.232364E-01 0.232363E-01
   ----------------------------------------------------------------
   Total forces(   6)            : 0.288266E-01 -.224861E-01 -.224862E-01
  atom #    7
   Hellmann-Feynman + Multipole  : 0.132870E+00 -.448388E-01 0.448388E-01
   Pulay + GGA                   : -.104320E+00 0.228544E-01 -.228545E-01
   ----------------------------------------------------------------
   Total forces(   7)            : 0.285497E-01 -.219843E-01 0.219843E-01
  atom #    8
   Hellmann-Feynman + Multipole  : 0.132870E+00 0.448388E-01 -.448388E-01
   Pulay + GGA                   : -.104320E+00 -.228545E-01 0.228544E-01
   ----------------------------------------------------------------
   Total forces(   8)            : 0.285498E-01 0.219842E-01 -.219844E-01

  Self-consistency convergence accuracy:
  | Change of charge density      : 0.7192E-09
  | Change of sum of eigenvalues  : -.3880E-06 eV
  | Change of total energy        : 0.3168E-08 eV
  | Change of forces              : 0.7050E-07 eV/A

  Writing Kohn-Sham eigenvalues.
  K-point:       1 at    0.000000    0.000000    0.000000 (in units of recip. lattice)

  State    Occupation    Eigenvalue [Ha]    Eigenvalue [eV]
      1       2.00000        -407.294934       -11083.05907
      2       2.00000        -407.294934       -11083.05907
      3       2.00000        -407.294839       -11083.05647
      4       2.00000        -407.294838       -11083.05643
      5       2.00000        -407.294836       -11083.05640
      6       2.00000        -407.294836       -11083.05640
      7       2.00000        -407.294740       -11083.05377
      8       2.00000        -407.294740       -11083.05377
      9       2.00000         -50.439206        -1372.52063
     10       2.00000         -50.439206        -1372.52063
     11       2.00000         -50.439089        -1372.51744
     12       2.00000         -50.439087        -1372.51738
     13       2.00000         -50.439086        -1372.51736
     14       2.00000         -50.439086        -1372.51736
     15       2.00000         -50.438967        -1372.51412
     16       2.00000         -50.438967        -1372.51412
     17       2.00000         -44.119991        -1200.56605
     18       2.00000         -44.119991        -1200.56605
     19       2.00000         -44.119991        -1200.56604
     20       2.00000         -44.119991        -1200.56604
     21       2.00000         -44.119987        -1200.56593
     22       2.00000         -44.119987        -1200.56593
     23       2.00000         -44.119885        -1200.56316
     24       2.00000         -44.119876        -1200.56292
     25       2.00000         -44.119875        -1200.56288
     26       2.00000         -44.119873        -1200.56283
     27       2.00000         -44.119872        -1200.56281
     28       2.00000         -44.119872        -1200.56281
     29       2.00000         -44.119872        -1200.56280
     30       2.00000         -44.119872        -1200.56280
     31       2.00000         -44.119872        -1200.56280
     32       2.00000         -44.119872        -1200.56280
     33       2.00000         -44.119870        -1200.56275
     34       2.00000         -44.119865        -1200.56261
     35       2.00000         -44.119759        -1200.55972
     36       2.00000         -44.119759        -1200.55972
     37       2.00000         -44.119755        -1200.55962
     38       2.00000         -44.119755        -1200.55962
     39       2.00000         -44.119754        -1200.55960
     40       2.00000         -44.119754        -1200.55960
     41       2.00000          -6.175244         -168.03693
     42       2.00000          -6.175235         -168.03669
     43       2.00000          -6.175108         -168.03325
     44       2.00000          -6.175106         -168.03319
     45       2.00000          -6.175105         -168.03317
     46       2.00000          -6.175105         -168.03316
     47       2.00000          -6.174977         -168.02968
     48       2.00000          -6.174969         -168.02946
     49       2.00000          -4.250445         -115.66050
     50       2.00000          -4.250427         -115.66000
     51       2.00000          -4.250423         -115.65988
     52       2.00000          -4.250405         -115.65939
     53       2.00000          -4.250402         -115.65931
     54       2.00000          -4.250369         -115.65843
     55       2.00000          -4.250309         -115.65679
     56       2.00000          -4.250288         -115.65622
     57       2.00000          -4.250286         -115.65615
     58       2.00000          -4.250154         -115.65258
     59       2.00000          -4.250154         -115.65257
     60       2.00000          -4.250154         -115.65257
     61       2.00000          -4.250153         -115.65254
     62       2.00000          -4.250152         -115.65253
     63       2.00000          -4.250149         -115.65245
     64       2.00000          -4.250018         -115.64887
     65       2.00000          -4.250017         -115.64883
     66       2.00000          -4.249994         -115.64822
     67       2.00000          -4.249937         -115.64667
     68       2.00000          -4.249906         -115.64583
     69       2.00000          -4.249904         -115.64577
     70       2.00000          -4.249887         -115.64531
     71       2.00000          -4.249883         -115.64521
     72       2.00000          -4.249864         -115.64469
     73       2.00000          -1.104999          -30.06855
     74       2.00000          -1.104891          -30.06562
     75       2.00000          -1.104884          -30.06541
     76       2.00000          -1.104877          -30.06523
     77       2.00000          -1.104868          -30.06500
     78       2.00000          -1.104760          -30.06204
     79       2.00000          -1.103634          -30.03141
     80       2.00000          -1.103624          -30.03114
     81       2.00000          -1.103587          -30.03012
     82       2.00000          -1.102260          -29.99403
     83       2.00000          -1.102255          -29.99388
     84       2.00000          -1.101679          -29.97821
     85       2.00000          -1.101673          -29.97806
     86       2.00000          -1.101649          -29.97740
     87       2.00000          -1.101647          -29.97734
     88       2.00000          -1.101632          -29.97693
     89       2.00000          -1.101606          -29.97622
     90       2.00000          -1.097980          -29.87755
     91       2.00000          -1.097943          -29.87654
     92       2.00000          -1.097911          -29.87567
     93       2.00000          -1.097910          -29.87564
     94       2.00000          -1.097877          -29.87475
     95       2.00000          -1.097841          -29.87376
     96       2.00000          -1.095792          -29.81802
     97       2.00000          -1.095786          -29.81786
     98       2.00000          -1.095758          -29.81708
     99       2.00000          -1.095757          -29.81706
    100       2.00000          -1.095726          -29.81622
    101       2.00000          -1.095715          -29.81592
    102       2.00000          -1.094298          -29.77737
    103       2.00000          -1.094286          -29.77703
    104       2.00000          -1.094281          -29.77689
    105       2.00000          -1.093800          -29.76381
    106       2.00000          -1.093799          -29.76378
    107       2.00000          -1.092274          -29.72229
    108       2.00000          -1.092242          -29.72143
    109       2.00000          -1.092230          -29.72109
    110       2.00000          -1.092229          -29.72105
    111       2.00000          -1.092216          -29.72071
    112       2.00000          -1.092184          -29.71985
    113       2.00000          -0.660831          -17.98211
    114       2.00000          -0.517857          -14.09159
    115       2.00000          -0.517526          -14.08261
    116       2.00000          -0.517206          -14.07389
    117       2.00000          -0.517206          -14.07388
    118       2.00000          -0.516888          -14.06523
    119       2.00000          -0.516554          -14.05616
    120       2.00000          -0.301395           -8.20138
    121       2.00000          -0.301169           -8.19522
    122       2.00000          -0.301130           -8.19417
    123       2.00000          -0.301128           -8.19412
    124       2.00000          -0.301093           -8.19315
    125       2.00000          -0.300865           -8.18696
    126       1.99318          -0.187937           -5.11402
    127       1.83180          -0.187592           -5.10464
    128       1.68840          -0.187497           -5.10205
    129       0.48662          -0.187053           -5.08997
    130       0.00000          -0.160441           -4.36581
    131       0.00000          -0.160270           -4.36116
    132       0.00000          -0.159946           -4.35236
    133       0.00000          -0.159945           -4.35232
    134       0.00000          -0.159623           -4.34356
    135       0.00000          -0.159456           -4.33901
    136       0.00000          -0.092974           -2.52995
    137       0.00000          -0.092635           -2.52072
    138       0.00000          -0.092297           -2.51152
    139       0.00000           0.089869            2.44545
    140       0.00000           0.172415            4.69164
    141       0.00000           0.172971            4.70679
    142       0.00000           0.173046            4.70883
    143       0.00000           0.173052            4.70899
    144       0.00000           0.173135            4.71124
    145       0.00000           0.173700            4.72661
    146       0.00000           0.201355            5.47916
    147       0.00000           0.201367            5.47947
    148       0.00000           0.270044            7.34827
    149       0.00000           0.270576            7.36275
    150       0.00000           0.270749            7.36745
    151       0.00000           0.270756            7.36763
    152       0.00000           0.270927            7.37230
    153       0.00000           0.271456            7.38670
    154       0.00000           0.313388            8.52771
    155       0.00000           0.314194            8.54967
    156       0.00000           0.314205            8.54994
    157       0.00000           0.314211            8.55012
    158       0.00000           0.314227            8.55055
    159       0.00000           0.315035            8.57254
    160       0.00000           0.415516           11.30678
    161       0.00000           0.416041           11.32106
    162       0.00000           0.416615           11.33668
    163       0.00000           0.437773           11.91242
    164       0.00000           0.438543           11.93336
    165       0.00000           0.438634           11.93584
    166       0.00000           0.438659           11.93653
    167       0.00000           0.438726           11.93834
    168       0.00000           0.439503           11.95949
    169       0.00000           0.633702           17.24391
    170       0.00000           0.633871           17.24852
    171       0.00000           0.633991           17.25177
    172       0.00000           0.633997           17.25193

  Highest occupied state (VBM) at     -5.10204917 eV (relative to internal zero)
  | Occupation number:      1.68840087
  | K-point:       1 at    0.000000    0.000000    0.000000 (in units of recip. lattice)

  Lowest unoccupied state (CBM) at    -5.08997490 eV (relative to internal zero)
  | Occupation number:      0.48662406
  | K-point:       1 at    0.000000    0.000000    0.000000 (in units of recip. lattice)

  Overall HOMO-LUMO gap:      0.01207428 eV between HOMO at k-point 1 and LUMO at k-point 1
  | This appears to be a direct band gap.
  However, the gap value is rather small. Since we use a finite k-point grid,
  this material is most likely metallic (in the sense that there are states
  at or near the Fermi level). A DOS and/or band structure plot is required
  for an unambiguous distinction.

  Self-consistency cycle converged.

  End self-consistency iteration #    14       :  max(cpu_time)    wall_clock(cpu1)
  | Time for this iteration                    :       12.453 s          12.491 s
  | Charge density & force component update    :        8.437 s           8.462 s
  | Density mixing                             :        0.004 s           0.001 s
  | Hartree multipole update                   :        0.004 s           0.002 s
  | Hartree multipole summation                :        1.040 s           1.040 s
  | Integration                                :        0.624 s           0.624 s
  | Solution of K.-S. eqns.                    :        2.344 s           2.351 s
  | Total energy evaluation                    :        0.008 s           0.008 s
------------------------------------------------------------
  Removing unitary transformations (pure translations, rotations) from forces on atoms.
  Atomic forces before filtering:
  | Net force on center of mass :  0.372570E-05 0.101090E-06 -.442741E-07 eV/A
  Atomic forces after filtering:
  | Net force on center of mass :  -.111504E-16 -.836279E-17 -.278760E-17 eV/A
 
  Energy and forces in a compact form:
  | Total energy uncorrected      :         -0.458877626767098E+06 eV
  | Total energy corrected        :         -0.458877626770031E+06 eV  <-- only rely on this value for actual (periodic) metals
  | Electronic free energy        :         -0.458877626772965E+06 eV
  Total atomic forces (unitary forces cleaned) [eV/Ang]:
  |   1         -0.116812454455999E+00         -0.643184335767494E-07         -0.963116755998756E-08
  |   2         -0.143125592798693E-01         -0.280337868918023E-07          0.133090241392203E-06
  |   3          0.818716258474799E-02         -0.437712463755852E-07         -0.183166916484335E-06
  |   4          0.818715863474108E-02          0.102838167014626E-06         -0.508704455249915E-07
  |   5          0.288260516592669E-01          0.224862600552870E-01          0.224863991857576E-01
  |   6          0.288260850491631E-01         -0.224861120670456E-01         -0.224862135245058E-01
  |   7          0.285492123214397E-01         -0.219843315958531E-01          0.219842700099191E-01
  |   8          0.285493434865098E-01          0.219842168929115E-01         -0.219843450928828E-01
 
  ------------------------------------ 
  Start decomposition of the XC Energy 
  ------------------------------------ 
  Hartree-Fock part   :          0.000000000 Ha              0.000000000 eV
  ------------------------------------ 
  X Energy            :       -592.329115489 Ha         -16118.095312116 eV
  C Energy GGA        :        -22.999722311 Ha           -625.854287197 eV
  Total XC Energy     :       -615.328837800 Ha         -16743.949599313 eV
  LDA X and C from self-consistent density 
  X Energy LDA        :       -592.329115489 Ha         -16118.095312116 eV
  C Energy LDA        :        -22.999722311 Ha           -625.854287197 eV
  ------------------------------------ 
  End decomposition of the XC Energy 
  ------------------------------------ 

------------------------------------------------------------------------------
  Final output of selected total energy values:

  The following output summarizes some interesting total energy values
  at the end of a run (AFTER all relaxation, molecular dynamics, etc.).

  | Total energy of the DFT / Hartree-Fock s.c.f. calculation      :        -458877.626767098 eV
  | Final zero-broadening corrected energy (caution - metals only) :        -458877.626770031 eV
  | For reference only, the value of 1 Hartree used in FHI-aims is :             27.211384500 eV

  Before relying on these values, please be sure to understand exactly which
  total energy value is referred to by a given number. Different objects may
  all carry the same name 'total energy'. Definitions:

  Total energy of the DFT / Hartree-Fock s.c.f. calculation:
  | Note that this energy does not include ANY quantities calculated after the
  | s.c.f. cycle, in particular not ANY RPA, MP2, etc. many-body perturbation terms.

  Final zero-broadening corrected energy:
  | For metallic systems only, a broadening of the occupation numbers at the Fermi
  | level can be extrapolated back to zero broadening by an electron-gas inspired
  | formula. For all systems that are not real metals, this value can be
  | meaningless and should be avoided.

------------------------------------------------------------------------------

------------------------------------------------------------
          Leaving FHI-aims.
          Date     :  20130211, Time     :  174738.031

          Computational steps:
          | Number of self-consistency cycles          :           14

          Detailed time accounting                     :  max(cpu_time)    wall_clock(cpu1)
          | Total time                                 :       75.961 s          76.308 s
          | Preparation time                           :        0.120 s           0.123 s
          | Grid partitioning                          :        0.092 s           0.090 s
          | Preloading free-atom quantities on grid    :        0.008 s           0.005 s
          | Free-atom superposition energy             :        0.040 s           0.040 s
          | Total time for integrations                :        9.833 s           9.833 s
          | Total time for solution of K.-S. equations :       38.166 s          38.256 s
          | Total time for density & force components  :       20.377 s          20.397 s
          | Total time for mixing & preconditioning    :        0.684 s           0.663 s
          | Total time for Hartree multipole update    :        0.056 s           0.026 s
          | Total time for Hartree multipole sum       :        6.300 s           6.288 s
          | Total time for total energy evaluation     :        0.068 s           0.059 s
          | Total time for scaled ZORA corrections     :        0.000 s           0.000 s

          Have a nice day.
------------------------------------------------------------
