ITEM: TIMESTEP
0
ITEM: NUMBER OF ATOMS
320
ITEM: BOX BOUNDS pp pp pp
-8.297 8.3174
-8.1455 8.1829
-7.2013 7.1735
ITEM: ATOMS id type x y z ix iy iz 
1 1 -6.1972 -6.11695 -5.37495 0 0 0 
2 2 -5.3322 -6.13895 -4.77095 0 0 0 
3 2 -7.1082 -6.15095 -4.78695 0 0 0 
4 2 -6.2562 -5.24895 -6.03795 0 0 0 
5 2 -6.2582 -6.95995 -5.98195 0 0 0 
6 1 -6.1972 -6.11695 -1.78125 0 0 0 
7 2 -5.3322 -6.13895 -1.17725 0 0 0 
8 2 -7.1082 -6.15095 -1.19325 0 0 0 
9 2 -6.2562 -5.24895 -2.44425 0 0 0 
10 2 -6.2582 -6.95995 -2.38825 0 0 0 
21 1 -6.1972 -2.03485 -5.37495 0 0 0 
22 2 -5.3322 -2.05685 -4.77095 0 0 0 
23 2 -7.1082 -2.06885 -4.78695 0 0 0 
24 2 -6.2562 -1.16685 -6.03795 0 0 0 
25 2 -6.2582 -2.87785 -5.98195 0 0 0 
26 1 -6.1972 -2.03485 -1.78125 0 0 0 
27 2 -5.3322 -2.05685 -1.17725 0 0 0 
28 2 -7.1082 -2.06885 -1.19325 0 0 0 
29 2 -6.2562 -1.16685 -2.44425 0 0 0 
30 2 -6.2582 -2.87785 -2.38825 0 0 0 
83 2 -2.9546 -6.15095 -4.78695 0 0 0 
88 2 -2.9546 -6.15095 -1.19325 0 0 0 
103 2 -2.9546 -2.06885 -4.78695 0 0 0 
108 2 -2.9546 -2.06885 -1.19325 0 0 0 
11 1 -6.1972 -6.11695 1.81245 0 0 0 
12 2 -5.3322 -6.13895 2.41645 0 0 0 
13 2 -7.1082 -6.15095 2.40045 0 0 0 
14 2 -6.2562 -5.24895 1.14945 0 0 0 
15 2 -6.2582 -6.95995 1.20545 0 0 0 
16 1 -6.1972 -6.11695 5.40615 0 0 0 
17 2 -5.3322 -6.13895 6.01015 0 0 0 
18 2 -7.1082 -6.15095 5.99415 0 0 0 
19 2 -6.2562 -5.24895 4.74315 0 0 0 
20 2 -6.2582 -6.95995 4.79915 0 0 0 
31 1 -6.1972 -2.03485 1.81245 0 0 0 
32 2 -5.3322 -2.05685 2.41645 0 0 0 
33 2 -7.1082 -2.06885 2.40045 0 0 0 
34 2 -6.2562 -1.16685 1.14945 0 0 0 
35 2 -6.2582 -2.87785 1.20545 0 0 0 
36 1 -6.1972 -2.03485 5.40615 0 0 0 
37 2 -5.3322 -2.05685 6.01015 0 0 0 
38 2 -7.1082 -2.06885 5.99415 0 0 0 
39 2 -6.2562 -1.16685 4.74315 0 0 0 
40 2 -6.2582 -2.87785 4.79915 0 0 0 
93 2 -2.9546 -6.15095 2.40045 0 0 0 
98 2 -2.9546 -6.15095 5.99415 0 0 0 
113 2 -2.9546 -2.06885 2.40045 0 0 0 
118 2 -2.9546 -2.06885 5.99415 0 0 0 
41 1 -6.1972 2.04725 -5.37495 0 0 0 
42 2 -5.3322 2.02525 -4.77095 0 0 0 
43 2 -7.1082 2.01325 -4.78695 0 0 0 
44 2 -6.2562 2.91525 -6.03795 0 0 0 
45 2 -6.2582 1.20425 -5.98195 0 0 0 
46 1 -6.1972 2.04725 -1.78125 0 0 0 
47 2 -5.3322 2.02525 -1.17725 0 0 0 
48 2 -7.1082 2.01325 -1.19325 0 0 0 
49 2 -6.2562 2.91525 -2.44425 0 0 0 
50 2 -6.2582 1.20425 -2.38825 0 0 0 
61 1 -6.1972 6.12935 -5.37495 0 0 0 
62 2 -5.3322 6.10735 -4.77095 0 0 0 
63 2 -7.1082 6.09535 -4.78695 0 0 0 
64 2 -6.2562 6.99735 -6.03795 0 0 0 
65 2 -6.2582 5.28635 -5.98195 0 0 0 
66 1 -6.1972 6.12935 -1.78125 0 0 0 
67 2 -5.3322 6.10735 -1.17725 0 0 0 
68 2 -7.1082 6.09535 -1.19325 0 0 0 
69 2 -6.2562 6.99735 -2.44425 0 0 0 
70 2 -6.2582 5.28635 -2.38825 0 0 0 
123 2 -2.9546 2.01325 -4.78695 0 0 0 
128 2 -2.9546 2.01325 -1.19325 0 0 0 
143 2 -2.9546 6.09535 -4.78695 0 0 0 
148 2 -2.9546 6.09535 -1.19325 0 0 0 
51 1 -6.1972 2.04725 1.81245 0 0 0 
52 2 -5.3322 2.02525 2.41645 0 0 0 
53 2 -7.1082 2.01325 2.40045 0 0 0 
54 2 -6.2562 2.91525 1.14945 0 0 0 
55 2 -6.2582 1.20425 1.20545 0 0 0 
56 1 -6.1972 2.04725 5.40615 0 0 0 
57 2 -5.3322 2.02525 6.01015 0 0 0 
58 2 -7.1082 2.01325 5.99415 0 0 0 
59 2 -6.2562 2.91525 4.74315 0 0 0 
60 2 -6.2582 1.20425 4.79915 0 0 0 
71 1 -6.1972 6.12935 1.81245 0 0 0 
72 2 -5.3322 6.10735 2.41645 0 0 0 
73 2 -7.1082 6.09535 2.40045 0 0 0 
74 2 -6.2562 6.99735 1.14945 0 0 0 
75 2 -6.2582 5.28635 1.20545 0 0 0 
76 1 -6.1972 6.12935 5.40615 0 0 0 
77 2 -5.3322 6.10735 6.01015 0 0 0 
78 2 -7.1082 6.09535 5.99415 0 0 0 
79 2 -6.2562 6.99735 4.74315 0 0 0 
80 2 -6.2582 5.28635 4.79915 0 0 0 
133 2 -2.9546 2.01325 2.40045 0 0 0 
138 2 -2.9546 2.01325 5.99415 0 0 0 
153 2 -2.9546 6.09535 2.40045 0 0 0 
158 2 -2.9546 6.09535 5.99415 0 0 0 
81 1 -2.0436 -6.11695 -5.37495 0 0 0 
82 2 -1.1786 -6.13895 -4.77095 0 0 0 
84 2 -2.1026 -5.24895 -6.03795 0 0 0 
85 2 -2.1046 -6.95995 -5.98195 0 0 0 
86 1 -2.0436 -6.11695 -1.78125 0 0 0 
87 2 -1.1786 -6.13895 -1.17725 0 0 0 
89 2 -2.1026 -5.24895 -2.44425 0 0 0 
90 2 -2.1046 -6.95995 -2.38825 0 0 0 
101 1 -2.0436 -2.03485 -5.37495 0 0 0 
102 2 -1.1786 -2.05685 -4.77095 0 0 0 
104 2 -2.1026 -1.16685 -6.03795 0 0 0 
105 2 -2.1046 -2.87785 -5.98195 0 0 0 
106 1 -2.0436 -2.03485 -1.78125 0 0 0 
107 2 -1.1786 -2.05685 -1.17725 0 0 0 
109 2 -2.1026 -1.16685 -2.44425 0 0 0 
110 2 -2.1046 -2.87785 -2.38825 0 0 0 
161 1 2.11 -6.11695 -5.37495 0 0 0 
163 2 1.199 -6.15095 -4.78695 0 0 0 
164 2 2.051 -5.24895 -6.03795 0 0 0 
165 2 2.049 -6.95995 -5.98195 0 0 0 
166 1 2.11 -6.11695 -1.78125 0 0 0 
168 2 1.199 -6.15095 -1.19325 0 0 0 
169 2 2.051 -5.24895 -2.44425 0 0 0 
170 2 2.049 -6.95995 -2.38825 0 0 0 
181 1 2.11 -2.03485 -5.37495 0 0 0 
183 2 1.199 -2.06885 -4.78695 0 0 0 
184 2 2.051 -1.16685 -6.03795 0 0 0 
185 2 2.049 -2.87785 -5.98195 0 0 0 
186 1 2.11 -2.03485 -1.78125 0 0 0 
188 2 1.199 -2.06885 -1.19325 0 0 0 
189 2 2.051 -1.16685 -2.44425 0 0 0 
190 2 2.049 -2.87785 -2.38825 0 0 0 
91 1 -2.0436 -6.11695 1.81245 0 0 0 
92 2 -1.1786 -6.13895 2.41645 0 0 0 
94 2 -2.1026 -5.24895 1.14945 0 0 0 
95 2 -2.1046 -6.95995 1.20545 0 0 0 
96 1 -2.0436 -6.11695 5.40615 0 0 0 
97 2 -1.1786 -6.13895 6.01015 0 0 0 
99 2 -2.1026 -5.24895 4.74315 0 0 0 
100 2 -2.1046 -6.95995 4.79915 0 0 0 
111 1 -2.0436 -2.03485 1.81245 0 0 0 
112 2 -1.1786 -2.05685 2.41645 0 0 0 
114 2 -2.1026 -1.16685 1.14945 0 0 0 
115 2 -2.1046 -2.87785 1.20545 0 0 0 
116 1 -2.0436 -2.03485 5.40615 0 0 0 
117 2 -1.1786 -2.05685 6.01015 0 0 0 
119 2 -2.1026 -1.16685 4.74315 0 0 0 
120 2 -2.1046 -2.87785 4.79915 0 0 0 
171 1 2.11 -6.11695 1.81245 0 0 0 
173 2 1.199 -6.15095 2.40045 0 0 0 
174 2 2.051 -5.24895 1.14945 0 0 0 
175 2 2.049 -6.95995 1.20545 0 0 0 
176 1 2.11 -6.11695 5.40615 0 0 0 
178 2 1.199 -6.15095 5.99415 0 0 0 
179 2 2.051 -5.24895 4.74315 0 0 0 
180 2 2.049 -6.95995 4.79915 0 0 0 
191 1 2.11 -2.03485 1.81245 0 0 0 
193 2 1.199 -2.06885 2.40045 0 0 0 
194 2 2.051 -1.16685 1.14945 0 0 0 
195 2 2.049 -2.87785 1.20545 0 0 0 
196 1 2.11 -2.03485 5.40615 0 0 0 
198 2 1.199 -2.06885 5.99415 0 0 0 
199 2 2.051 -1.16685 4.74315 0 0 0 
200 2 2.049 -2.87785 4.79915 0 0 0 
121 1 -2.0436 2.04725 -5.37495 0 0 0 
122 2 -1.1786 2.02525 -4.77095 0 0 0 
124 2 -2.1026 2.91525 -6.03795 0 0 0 
125 2 -2.1046 1.20425 -5.98195 0 0 0 
126 1 -2.0436 2.04725 -1.78125 0 0 0 
127 2 -1.1786 2.02525 -1.17725 0 0 0 
129 2 -2.1026 2.91525 -2.44425 0 0 0 
130 2 -2.1046 1.20425 -2.38825 0 0 0 
141 1 -2.0436 6.12935 -5.37495 0 0 0 
142 2 -1.1786 6.10735 -4.77095 0 0 0 
144 2 -2.1026 6.99735 -6.03795 0 0 0 
145 2 -2.1046 5.28635 -5.98195 0 0 0 
146 1 -2.0436 6.12935 -1.78125 0 0 0 
147 2 -1.1786 6.10735 -1.17725 0 0 0 
149 2 -2.1026 6.99735 -2.44425 0 0 0 
150 2 -2.1046 5.28635 -2.38825 0 0 0 
201 1 2.11 2.04725 -5.37495 0 0 0 
203 2 1.199 2.01325 -4.78695 0 0 0 
204 2 2.051 2.91525 -6.03795 0 0 0 
205 2 2.049 1.20425 -5.98195 0 0 0 
206 1 2.11 2.04725 -1.78125 0 0 0 
208 2 1.199 2.01325 -1.19325 0 0 0 
209 2 2.051 2.91525 -2.44425 0 0 0 
210 2 2.049 1.20425 -2.38825 0 0 0 
221 1 2.11 6.12935 -5.37495 0 0 0 
223 2 1.199 6.09535 -4.78695 0 0 0 
224 2 2.051 6.99735 -6.03795 0 0 0 
225 2 2.049 5.28635 -5.98195 0 0 0 
226 1 2.11 6.12935 -1.78125 0 0 0 
228 2 1.199 6.09535 -1.19325 0 0 0 
229 2 2.051 6.99735 -2.44425 0 0 0 
230 2 2.049 5.28635 -2.38825 0 0 0 
131 1 -2.0436 2.04725 1.81245 0 0 0 
132 2 -1.1786 2.02525 2.41645 0 0 0 
134 2 -2.1026 2.91525 1.14945 0 0 0 
135 2 -2.1046 1.20425 1.20545 0 0 0 
136 1 -2.0436 2.04725 5.40615 0 0 0 
137 2 -1.1786 2.02525 6.01015 0 0 0 
139 2 -2.1026 2.91525 4.74315 0 0 0 
140 2 -2.1046 1.20425 4.79915 0 0 0 
151 1 -2.0436 6.12935 1.81245 0 0 0 
152 2 -1.1786 6.10735 2.41645 0 0 0 
154 2 -2.1026 6.99735 1.14945 0 0 0 
155 2 -2.1046 5.28635 1.20545 0 0 0 
156 1 -2.0436 6.12935 5.40615 0 0 0 
157 2 -1.1786 6.10735 6.01015 0 0 0 
159 2 -2.1026 6.99735 4.74315 0 0 0 
160 2 -2.1046 5.28635 4.79915 0 0 0 
211 1 2.11 2.04725 1.81245 0 0 0 
213 2 1.199 2.01325 2.40045 0 0 0 
214 2 2.051 2.91525 1.14945 0 0 0 
215 2 2.049 1.20425 1.20545 0 0 0 
216 1 2.11 2.04725 5.40615 0 0 0 
218 2 1.199 2.01325 5.99415 0 0 0 
219 2 2.051 2.91525 4.74315 0 0 0 
220 2 2.049 1.20425 4.79915 0 0 0 
231 1 2.11 6.12935 1.81245 0 0 0 
233 2 1.199 6.09535 2.40045 0 0 0 
234 2 2.051 6.99735 1.14945 0 0 0 
235 2 2.049 5.28635 1.20545 0 0 0 
236 1 2.11 6.12935 5.40615 0 0 0 
238 2 1.199 6.09535 5.99415 0 0 0 
239 2 2.051 6.99735 4.74315 0 0 0 
240 2 2.049 5.28635 4.79915 0 0 0 
162 2 2.975 -6.13895 -4.77095 0 0 0 
167 2 2.975 -6.13895 -1.17725 0 0 0 
182 2 2.975 -2.05685 -4.77095 0 0 0 
187 2 2.975 -2.05685 -1.17725 0 0 0 
241 1 6.2636 -6.11695 -5.37495 0 0 0 
242 2 7.1286 -6.13895 -4.77095 0 0 0 
243 2 5.3526 -6.15095 -4.78695 0 0 0 
244 2 6.2046 -5.24895 -6.03795 0 0 0 
245 2 6.2026 -6.95995 -5.98195 0 0 0 
246 1 6.2636 -6.11695 -1.78125 0 0 0 
247 2 7.1286 -6.13895 -1.17725 0 0 0 
248 2 5.3526 -6.15095 -1.19325 0 0 0 
249 2 6.2046 -5.24895 -2.44425 0 0 0 
250 2 6.2026 -6.95995 -2.38825 0 0 0 
261 1 6.2636 -2.03485 -5.37495 0 0 0 
262 2 7.1286 -2.05685 -4.77095 0 0 0 
263 2 5.3526 -2.06885 -4.78695 0 0 0 
264 2 6.2046 -1.16685 -6.03795 0 0 0 
265 2 6.2026 -2.87785 -5.98195 0 0 0 
266 1 6.2636 -2.03485 -1.78125 0 0 0 
267 2 7.1286 -2.05685 -1.17725 0 0 0 
268 2 5.3526 -2.06885 -1.19325 0 0 0 
269 2 6.2046 -1.16685 -2.44425 0 0 0 
270 2 6.2026 -2.87785 -2.38825 0 0 0 
172 2 2.975 -6.13895 2.41645 0 0 0 
177 2 2.975 -6.13895 6.01015 0 0 0 
192 2 2.975 -2.05685 2.41645 0 0 0 
197 2 2.975 -2.05685 6.01015 0 0 0 
251 1 6.2636 -6.11695 1.81245 0 0 0 
252 2 7.1286 -6.13895 2.41645 0 0 0 
253 2 5.3526 -6.15095 2.40045 0 0 0 
254 2 6.2046 -5.24895 1.14945 0 0 0 
255 2 6.2026 -6.95995 1.20545 0 0 0 
256 1 6.2636 -6.11695 5.40615 0 0 0 
257 2 7.1286 -6.13895 6.01015 0 0 0 
258 2 5.3526 -6.15095 5.99415 0 0 0 
259 2 6.2046 -5.24895 4.74315 0 0 0 
260 2 6.2026 -6.95995 4.79915 0 0 0 
271 1 6.2636 -2.03485 1.81245 0 0 0 
272 2 7.1286 -2.05685 2.41645 0 0 0 
273 2 5.3526 -2.06885 2.40045 0 0 0 
274 2 6.2046 -1.16685 1.14945 0 0 0 
275 2 6.2026 -2.87785 1.20545 0 0 0 
276 1 6.2636 -2.03485 5.40615 0 0 0 
277 2 7.1286 -2.05685 6.01015 0 0 0 
278 2 5.3526 -2.06885 5.99415 0 0 0 
279 2 6.2046 -1.16685 4.74315 0 0 0 
280 2 6.2026 -2.87785 4.79915 0 0 0 
202 2 2.975 2.02525 -4.77095 0 0 0 
207 2 2.975 2.02525 -1.17725 0 0 0 
222 2 2.975 6.10735 -4.77095 0 0 0 
227 2 2.975 6.10735 -1.17725 0 0 0 
281 1 6.2636 2.04725 -5.37495 0 0 0 
282 2 7.1286 2.02525 -4.77095 0 0 0 
283 2 5.3526 2.01325 -4.78695 0 0 0 
284 2 6.2046 2.91525 -6.03795 0 0 0 
285 2 6.2026 1.20425 -5.98195 0 0 0 
286 1 6.2636 2.04725 -1.78125 0 0 0 
287 2 7.1286 2.02525 -1.17725 0 0 0 
288 2 5.3526 2.01325 -1.19325 0 0 0 
289 2 6.2046 2.91525 -2.44425 0 0 0 
290 2 6.2026 1.20425 -2.38825 0 0 0 
301 1 6.2636 6.12935 -5.37495 0 0 0 
302 2 7.1286 6.10735 -4.77095 0 0 0 
303 2 5.3526 6.09535 -4.78695 0 0 0 
304 2 6.2046 6.99735 -6.03795 0 0 0 
305 2 6.2026 5.28635 -5.98195 0 0 0 
306 1 6.2636 6.12935 -1.78125 0 0 0 
307 2 7.1286 6.10735 -1.17725 0 0 0 
308 2 5.3526 6.09535 -1.19325 0 0 0 
309 2 6.2046 6.99735 -2.44425 0 0 0 
310 2 6.2026 5.28635 -2.38825 0 0 0 
212 2 2.975 2.02525 2.41645 0 0 0 
217 2 2.975 2.02525 6.01015 0 0 0 
232 2 2.975 6.10735 2.41645 0 0 0 
237 2 2.975 6.10735 6.01015 0 0 0 
291 1 6.2636 2.04725 1.81245 0 0 0 
292 2 7.1286 2.02525 2.41645 0 0 0 
293 2 5.3526 2.01325 2.40045 0 0 0 
294 2 6.2046 2.91525 1.14945 0 0 0 
295 2 6.2026 1.20425 1.20545 0 0 0 
296 1 6.2636 2.04725 5.40615 0 0 0 
297 2 7.1286 2.02525 6.01015 0 0 0 
298 2 5.3526 2.01325 5.99415 0 0 0 
299 2 6.2046 2.91525 4.74315 0 0 0 
300 2 6.2026 1.20425 4.79915 0 0 0 
311 1 6.2636 6.12935 1.81245 0 0 0 
312 2 7.1286 6.10735 2.41645 0 0 0 
313 2 5.3526 6.09535 2.40045 0 0 0 
314 2 6.2046 6.99735 1.14945 0 0 0 
315 2 6.2026 5.28635 1.20545 0 0 0 
316 1 6.2636 6.12935 5.40615 0 0 0 
317 2 7.1286 6.10735 6.01015 0 0 0 
318 2 5.3526 6.09535 5.99415 0 0 0 
319 2 6.2046 6.99735 4.74315 0 0 0 
320 2 6.2026 5.28635 4.79915 0 0 0 
ITEM: TIMESTEP
400
ITEM: NUMBER OF ATOMS
320
ITEM: BOX BOUNDS pp pp pp
-8.297 8.3174
-8.1455 8.1829
-7.2013 7.1735
ITEM: ATOMS id type x y z ix iy iz 
1 1 -6.21074 -6.12479 -5.381 0 0 0 
2 2 -5.31245 -6.08496 -4.75775 0 0 0 
3 2 -7.12117 -6.12805 -4.71254 0 0 0 
4 2 -6.19549 -5.19008 -6.02184 0 0 0 
5 2 -6.16436 -7.00227 -6.01358 0 0 0 
6 1 -6.21074 -6.12479 -1.7873 0 0 0 
7 2 -5.31245 -6.08496 -1.16405 0 0 0 
8 2 -7.12117 -6.12805 -1.11884 0 0 0 
9 2 -6.19549 -5.19008 -2.42814 0 0 0 
10 2 -6.16436 -7.00227 -2.41988 0 0 0 
21 1 -6.21074 -2.04269 -5.381 0 0 0 
22 2 -5.31245 -2.00286 -4.75775 0 0 0 
23 2 -7.12117 -2.04595 -4.71254 0 0 0 
24 2 -6.19549 -1.10798 -6.02184 0 0 0 
25 2 -6.16436 -2.92017 -6.01358 0 0 0 
26 1 -6.21074 -2.04269 -1.7873 0 0 0 
27 2 -5.31245 -2.00286 -1.16405 0 0 0 
28 2 -7.12117 -2.04595 -1.11884 0 0 0 
29 2 -6.19549 -1.10798 -2.42814 0 0 0 
30 2 -6.16436 -2.92017 -2.41988 0 0 0 
83 2 -2.96756 -6.12805 -4.71254 0 0 0 
88 2 -2.96756 -6.12805 -1.11884 0 0 0 
103 2 -2.96756 -2.04595 -4.71254 0 0 0 
108 2 -2.96756 -2.04595 -1.11884 0 0 0 
11 1 -6.21074 -6.12479 1.8064 0 0 0 
12 2 -5.31245 -6.08496 2.42965 0 0 0 
13 2 -7.12117 -6.12805 2.47486 0 0 0 
14 2 -6.19549 -5.19008 1.16556 0 0 0 
15 2 -6.16436 -7.00227 1.17382 0 0 0 
16 1 -6.21074 -6.12479 5.4001 0 0 0 
17 2 -5.31245 -6.08496 6.02335 0 0 0 
18 2 -7.12117 -6.12805 6.06856 0 0 0 
19 2 -6.19549 -5.19008 4.75926 0 0 0 
20 2 -6.16436 -7.00227 4.76752 0 0 0 
31 1 -6.21074 -2.04269 1.8064 0 0 0 
32 2 -5.31245 -2.00286 2.42965 0 0 0 
33 2 -7.12117 -2.04595 2.47486 0 0 0 
34 2 -6.19549 -1.10798 1.16556 0 0 0 
35 2 -6.16436 -2.92017 1.17382 0 0 0 
36 1 -6.21074 -2.04269 5.4001 0 0 0 
37 2 -5.31245 -2.00286 6.02335 0 0 0 
38 2 -7.12117 -2.04595 6.06856 0 0 0 
39 2 -6.19549 -1.10798 4.75926 0 0 0 
40 2 -6.16436 -2.92017 4.76752 0 0 0 
93 2 -2.96756 -6.12805 2.47486 0 0 0 
98 2 -2.96757 -6.12805 6.06856 0 0 0 
113 2 -2.96756 -2.04595 2.47486 0 0 0 
118 2 -2.96757 -2.04595 6.06856 0 0 0 
41 1 -6.21074 2.03941 -5.381 0 0 0 
42 2 -5.31245 2.07924 -4.75775 0 0 0 
43 2 -7.12117 2.03615 -4.71254 0 0 0 
44 2 -6.19549 2.97412 -6.02184 0 0 0 
45 2 -6.16436 1.16193 -6.01358 0 0 0 
46 1 -6.21074 2.03941 -1.7873 0 0 0 
47 2 -5.31245 2.07924 -1.16405 0 0 0 
48 2 -7.12117 2.03615 -1.11884 0 0 0 
49 2 -6.19549 2.97412 -2.42814 0 0 0 
50 2 -6.16436 1.16193 -2.41988 0 0 0 
61 1 -6.21074 6.12151 -5.381 0 0 0 
62 2 -5.31245 6.16134 -4.75775 0 0 0 
63 2 -7.12117 6.11825 -4.71254 0 0 0 
64 2 -6.19549 7.05622 -6.02184 0 0 0 
65 2 -6.16436 5.24403 -6.01358 0 0 0 
66 1 -6.21074 6.12151 -1.7873 0 0 0 
67 2 -5.31245 6.16134 -1.16405 0 0 0 
68 2 -7.12117 6.11825 -1.11884 0 0 0 
69 2 -6.19549 7.05622 -2.42814 0 0 0 
70 2 -6.16436 5.24403 -2.41988 0 0 0 
123 2 -2.96756 2.03615 -4.71254 0 0 0 
128 2 -2.96756 2.03615 -1.11884 0 0 0 
143 2 -2.96756 6.11825 -4.71254 0 0 0 
148 2 -2.96756 6.11825 -1.11884 0 0 0 
51 1 -6.21074 2.03941 1.8064 0 0 0 
52 2 -5.31245 2.07924 2.42965 0 0 0 
53 2 -7.12117 2.03615 2.47486 0 0 0 
54 2 -6.19549 2.97412 1.16556 0 0 0 
55 2 -6.16436 1.16193 1.17382 0 0 0 
56 1 -6.21074 2.03941 5.4001 0 0 0 
57 2 -5.31245 2.07924 6.02335 0 0 0 
58 2 -7.12117 2.03615 6.06856 0 0 0 
59 2 -6.19549 2.97412 4.75926 0 0 0 
60 2 -6.16436 1.16193 4.76752 0 0 0 
71 1 -6.21074 6.12151 1.8064 0 0 0 
72 2 -5.31245 6.16134 2.42965 0 0 0 
73 2 -7.12117 6.11825 2.47486 0 0 0 
74 2 -6.19549 7.05622 1.16556 0 0 0 
75 2 -6.16436 5.24403 1.17382 0 0 0 
76 1 -6.21074 6.12151 5.4001 0 0 0 
77 2 -5.31245 6.16134 6.02335 0 0 0 
78 2 -7.12117 6.11825 6.06856 0 0 0 
79 2 -6.19549 7.05622 4.75926 0 0 0 
80 2 -6.16436 5.24403 4.76752 0 0 0 
133 2 -2.96756 2.03615 2.47486 0 0 0 
138 2 -2.96756 2.03615 6.06856 0 0 0 
153 2 -2.96756 6.11825 2.47486 0 0 0 
158 2 -2.96756 6.11825 6.06856 0 0 0 
81 1 -2.05714 -6.12479 -5.381 0 0 0 
82 2 -1.15885 -6.08496 -4.75775 0 0 0 
84 2 -2.04189 -5.19008 -6.02184 0 0 0 
85 2 -2.01075 -7.00227 -6.01358 0 0 0 
86 1 -2.05714 -6.12479 -1.7873 0 0 0 
87 2 -1.15885 -6.08496 -1.16405 0 0 0 
89 2 -2.04189 -5.19008 -2.42814 0 0 0 
90 2 -2.01075 -7.00227 -2.41988 0 0 0 
101 1 -2.05714 -2.04269 -5.381 0 0 0 
102 2 -1.15885 -2.00286 -4.75775 0 0 0 
104 2 -2.04189 -1.10798 -6.02184 0 0 0 
105 2 -2.01075 -2.92017 -6.01358 0 0 0 
106 1 -2.05714 -2.04269 -1.7873 0 0 0 
107 2 -1.15885 -2.00286 -1.16405 0 0 0 
109 2 -2.04189 -1.10798 -2.42814 0 0 0 
110 2 -2.01075 -2.92017 -2.41988 0 0 0 
161 1 2.09646 -6.12479 -5.381 0 0 0 
163 2 1.18604 -6.12805 -4.71254 0 0 0 
164 2 2.11171 -5.19008 -6.02184 0 0 0 
165 2 2.14285 -7.00227 -6.01358 0 0 0 
166 1 2.09646 -6.12479 -1.7873 0 0 0 
168 2 1.18604 -6.12805 -1.11884 0 0 0 
169 2 2.11171 -5.19008 -2.42814 0 0 0 
170 2 2.14285 -7.00227 -2.41988 0 0 0 
181 1 2.09646 -2.04269 -5.381 0 0 0 
183 2 1.18604 -2.04595 -4.71254 0 0 0 
184 2 2.11171 -1.10798 -6.02184 0 0 0 
185 2 2.14285 -2.92017 -6.01358 0 0 0 
186 1 2.09646 -2.04269 -1.7873 0 0 0 
188 2 1.18604 -2.04595 -1.11884 0 0 0 
189 2 2.11171 -1.10798 -2.42814 0 0 0 
190 2 2.14285 -2.92017 -2.41988 0 0 0 
91 1 -2.05714 -6.12479 1.8064 0 0 0 
92 2 -1.15885 -6.08496 2.42965 0 0 0 
94 2 -2.04189 -5.19008 1.16556 0 0 0 
95 2 -2.01075 -7.00227 1.17382 0 0 0 
96 1 -2.05714 -6.12479 5.4001 0 0 0 
97 2 -1.15885 -6.08496 6.02335 0 0 0 
99 2 -2.04189 -5.19008 4.75926 0 0 0 
100 2 -2.01075 -7.00227 4.76752 0 0 0 
111 1 -2.05714 -2.04269 1.8064 0 0 0 
112 2 -1.15885 -2.00286 2.42965 0 0 0 
114 2 -2.04189 -1.10798 1.16556 0 0 0 
115 2 -2.01075 -2.92017 1.17382 0 0 0 
116 1 -2.05714 -2.04269 5.4001 0 0 0 
117 2 -1.15885 -2.00286 6.02335 0 0 0 
119 2 -2.04189 -1.10798 4.75926 0 0 0 
120 2 -2.01075 -2.92017 4.76752 0 0 0 
171 1 2.09646 -6.12479 1.8064 0 0 0 
173 2 1.18604 -6.12805 2.47486 0 0 0 
174 2 2.11171 -5.19008 1.16556 0 0 0 
175 2 2.14285 -7.00227 1.17382 0 0 0 
176 1 2.09646 -6.12479 5.4001 0 0 0 
178 2 1.18604 -6.12805 6.06856 0 0 0 
179 2 2.11171 -5.19008 4.75926 0 0 0 
180 2 2.14285 -7.00227 4.76752 0 0 0 
191 1 2.09646 -2.04269 1.8064 0 0 0 
193 2 1.18604 -2.04595 2.47486 0 0 0 
194 2 2.11171 -1.10798 1.16556 0 0 0 
195 2 2.14285 -2.92017 1.17382 0 0 0 
196 1 2.09646 -2.04269 5.4001 0 0 0 
198 2 1.18604 -2.04595 6.06856 0 0 0 
199 2 2.11171 -1.10798 4.75926 0 0 0 
200 2 2.14285 -2.92017 4.76752 0 0 0 
121 1 -2.05714 2.03941 -5.381 0 0 0 
122 2 -1.15885 2.07924 -4.75775 0 0 0 
124 2 -2.04189 2.97412 -6.02184 0 0 0 
125 2 -2.01075 1.16193 -6.01358 0 0 0 
126 1 -2.05714 2.03941 -1.7873 0 0 0 
127 2 -1.15885 2.07924 -1.16405 0 0 0 
129 2 -2.04189 2.97412 -2.42814 0 0 0 
130 2 -2.01075 1.16193 -2.41988 0 0 0 
141 1 -2.05714 6.12151 -5.381 0 0 0 
142 2 -1.15885 6.16134 -4.75775 0 0 0 
144 2 -2.04189 7.05622 -6.02184 0 0 0 
145 2 -2.01075 5.24403 -6.01358 0 0 0 
146 1 -2.05714 6.12151 -1.7873 0 0 0 
147 2 -1.15885 6.16134 -1.16405 0 0 0 
149 2 -2.04189 7.05622 -2.42814 0 0 0 
150 2 -2.01075 5.24403 -2.41988 0 0 0 
201 1 2.09646 2.03941 -5.381 0 0 0 
203 2 1.18604 2.03615 -4.71254 0 0 0 
204 2 2.11171 2.97412 -6.02184 0 0 0 
205 2 2.14285 1.16193 -6.01358 0 0 0 
206 1 2.09646 2.03941 -1.7873 0 0 0 
208 2 1.18604 2.03615 -1.11884 0 0 0 
209 2 2.11171 2.97412 -2.42814 0 0 0 
210 2 2.14285 1.16193 -2.41988 0 0 0 
221 1 2.09646 6.12151 -5.381 0 0 0 
223 2 1.18604 6.11825 -4.71254 0 0 0 
224 2 2.11171 7.05622 -6.02184 0 0 0 
225 2 2.14285 5.24403 -6.01358 0 0 0 
226 1 2.09646 6.12151 -1.7873 0 0 0 
228 2 1.18604 6.11825 -1.11884 0 0 0 
229 2 2.11171 7.05622 -2.42814 0 0 0 
230 2 2.14285 5.24403 -2.41988 0 0 0 
131 1 -2.05714 2.03941 1.8064 0 0 0 
132 2 -1.15885 2.07924 2.42965 0 0 0 
134 2 -2.04189 2.97412 1.16556 0 0 0 
135 2 -2.01075 1.16193 1.17382 0 0 0 
136 1 -2.05714 2.03941 5.4001 0 0 0 
137 2 -1.15885 2.07924 6.02335 0 0 0 
139 2 -2.04189 2.97412 4.75926 0 0 0 
140 2 -2.01075 1.16193 4.76752 0 0 0 
151 1 -2.05714 6.12151 1.8064 0 0 0 
152 2 -1.15885 6.16134 2.42965 0 0 0 
154 2 -2.04189 7.05622 1.16556 0 0 0 
155 2 -2.01075 5.24403 1.17382 0 0 0 
156 1 -2.05714 6.12151 5.4001 0 0 0 
157 2 -1.15885 6.16134 6.02335 0 0 0 
159 2 -2.04189 7.05622 4.75926 0 0 0 
160 2 -2.01075 5.24403 4.76752 0 0 0 
211 1 2.09646 2.03941 1.8064 0 0 0 
213 2 1.18604 2.03615 2.47486 0 0 0 
214 2 2.11171 2.97412 1.16556 0 0 0 
215 2 2.14285 1.16193 1.17382 0 0 0 
216 1 2.09646 2.03941 5.4001 0 0 0 
218 2 1.18604 2.03615 6.06856 0 0 0 
219 2 2.11171 2.97412 4.75926 0 0 0 
220 2 2.14285 1.16193 4.76752 0 0 0 
231 1 2.09646 6.12151 1.8064 0 0 0 
233 2 1.18604 6.11825 2.47486 0 0 0 
234 2 2.11171 7.05622 1.16556 0 0 0 
235 2 2.14285 5.24403 1.17382 0 0 0 
236 1 2.09646 6.12151 5.4001 0 0 0 
238 2 1.18604 6.11825 6.06856 0 0 0 
239 2 2.11171 7.05622 4.75926 0 0 0 
240 2 2.14285 5.24403 4.76752 0 0 0 
162 2 2.99475 -6.08496 -4.75775 0 0 0 
167 2 2.99475 -6.08496 -1.16405 0 0 0 
182 2 2.99475 -2.00286 -4.75775 0 0 0 
187 2 2.99475 -2.00286 -1.16405 0 0 0 
241 1 6.25006 -6.12479 -5.381 0 0 0 
242 2 7.14835 -6.08496 -4.75775 0 0 0 
243 2 5.33964 -6.12805 -4.71254 0 0 0 
244 2 6.26531 -5.19008 -6.02184 0 0 0 
245 2 6.29645 -7.00227 -6.01358 0 0 0 
246 1 6.25006 -6.12479 -1.7873 0 0 0 
247 2 7.14835 -6.08496 -1.16405 0 0 0 
248 2 5.33964 -6.12805 -1.11884 0 0 0 
249 2 6.26531 -5.19008 -2.42814 0 0 0 
250 2 6.29645 -7.00227 -2.41988 0 0 0 
261 1 6.25006 -2.04269 -5.381 0 0 0 
262 2 7.14835 -2.00286 -4.75775 0 0 0 
263 2 5.33964 -2.04595 -4.71254 0 0 0 
264 2 6.26531 -1.10798 -6.02184 0 0 0 
265 2 6.29645 -2.92017 -6.01358 0 0 0 
266 1 6.25006 -2.04269 -1.7873 0 0 0 
267 2 7.14835 -2.00286 -1.16405 0 0 0 
268 2 5.33964 -2.04595 -1.11884 0 0 0 
269 2 6.26531 -1.10798 -2.42814 0 0 0 
270 2 6.29645 -2.92017 -2.41988 0 0 0 
172 2 2.99475 -6.08496 2.42965 0 0 0 
177 2 2.99475 -6.08496 6.02335 0 0 0 
192 2 2.99475 -2.00286 2.42965 0 0 0 
197 2 2.99475 -2.00286 6.02335 0 0 0 
251 1 6.25006 -6.12479 1.8064 0 0 0 
252 2 7.14835 -6.08496 2.42965 0 0 0 
253 2 5.33964 -6.12805 2.47486 0 0 0 
254 2 6.26531 -5.19008 1.16556 0 0 0 
255 2 6.29645 -7.00227 1.17382 0 0 0 
256 1 6.25006 -6.12479 5.4001 0 0 0 
257 2 7.14835 -6.08496 6.02335 0 0 0 
258 2 5.33964 -6.12805 6.06856 0 0 0 
259 2 6.26531 -5.19008 4.75926 0 0 0 
260 2 6.29645 -7.00227 4.76752 0 0 0 
271 1 6.25006 -2.04269 1.8064 0 0 0 
272 2 7.14835 -2.00286 2.42965 0 0 0 
273 2 5.33964 -2.04595 2.47486 0 0 0 
274 2 6.26531 -1.10798 1.16556 0 0 0 
275 2 6.29645 -2.92017 1.17382 0 0 0 
276 1 6.25006 -2.04269 5.4001 0 0 0 
277 2 7.14835 -2.00286 6.02335 0 0 0 
278 2 5.33964 -2.04595 6.06856 0 0 0 
279 2 6.26531 -1.10798 4.75926 0 0 0 
280 2 6.29645 -2.92017 4.76752 0 0 0 
202 2 2.99475 2.07924 -4.75775 0 0 0 
207 2 2.99475 2.07924 -1.16405 0 0 0 
222 2 2.99475 6.16134 -4.75775 0 0 0 
227 2 2.99475 6.16134 -1.16405 0 0 0 
281 1 6.25006 2.03941 -5.381 0 0 0 
282 2 7.14835 2.07924 -4.75775 0 0 0 
283 2 5.33964 2.03615 -4.71254 0 0 0 
284 2 6.26531 2.97412 -6.02184 0 0 0 
285 2 6.29645 1.16193 -6.01358 0 0 0 
286 1 6.25006 2.03941 -1.7873 0 0 0 
287 2 7.14835 2.07924 -1.16405 0 0 0 
288 2 5.33964 2.03615 -1.11884 0 0 0 
289 2 6.26531 2.97412 -2.42814 0 0 0 
290 2 6.29645 1.16193 -2.41988 0 0 0 
301 1 6.25006 6.12151 -5.381 0 0 0 
302 2 7.14835 6.16134 -4.75775 0 0 0 
303 2 5.33964 6.11825 -4.71254 0 0 0 
304 2 6.26531 7.05622 -6.02184 0 0 0 
305 2 6.29645 5.24403 -6.01358 0 0 0 
306 1 6.25006 6.12151 -1.7873 0 0 0 
307 2 7.14835 6.16134 -1.16405 0 0 0 
308 2 5.33964 6.11825 -1.11884 0 0 0 
309 2 6.26531 7.05622 -2.42814 0 0 0 
310 2 6.29645 5.24403 -2.41988 0 0 0 
212 2 2.99475 2.07924 2.42965 0 0 0 
217 2 2.99475 2.07924 6.02335 0 0 0 
232 2 2.99475 6.16134 2.42965 0 0 0 
237 2 2.99475 6.16134 6.02335 0 0 0 
291 1 6.25006 2.03941 1.8064 0 0 0 
292 2 7.14835 2.07924 2.42965 0 0 0 
293 2 5.33964 2.03615 2.47486 0 0 0 
294 2 6.26531 2.97412 1.16556 0 0 0 
295 2 6.29645 1.16193 1.17382 0 0 0 
296 1 6.25006 2.03941 5.4001 0 0 0 
297 2 7.14835 2.07924 6.02335 0 0 0 
298 2 5.33964 2.03615 6.06856 0 0 0 
299 2 6.26531 2.97412 4.75926 0 0 0 
300 2 6.29645 1.16193 4.76752 0 0 0 
311 1 6.25006 6.12151 1.8064 0 0 0 
312 2 7.14835 6.16134 2.42965 0 0 0 
313 2 5.33964 6.11825 2.47486 0 0 0 
314 2 6.26531 7.05622 1.16556 0 0 0 
315 2 6.29645 5.24403 1.17382 0 0 0 
316 1 6.25006 6.12151 5.4001 0 0 0 
317 2 7.14835 6.16134 6.02335 0 0 0 
318 2 5.33964 6.11825 6.06856 0 0 0 
319 2 6.26531 7.05622 4.75926 0 0 0 
320 2 6.29645 5.24403 4.76752 0 0 0 
ITEM: TIMESTEP
800
ITEM: NUMBER OF ATOMS
320
ITEM: BOX BOUNDS pp pp pp
-8.297 8.3174
-8.1455 8.1829
-7.2013 7.1735
ITEM: ATOMS id type x y z ix iy iz 
1 1 -6.21013 -6.12542 -5.38473 0 0 0 
2 2 -5.39637 -5.85018 -4.77107 0 0 0 
3 2 -7.03532 -6.36304 -4.72259 0 0 0 
4 2 -6.45559 -5.2486 -5.98703 0 0 0 
5 2 -5.91351 -6.93603 -5.98063 0 0 0 
6 1 -6.21013 -6.12542 -1.79102 0 0 0 
7 2 -5.39637 -5.85018 -1.17737 0 0 0 
8 2 -7.03532 -6.36304 -1.12889 0 0 0 
9 2 -6.45559 -5.2486 -2.39333 0 0 0 
10 2 -5.91351 -6.93603 -2.38693 0 0 0 
21 1 -6.21013 -2.04332 -5.38472 0 0 0 
22 2 -5.39637 -1.76808 -4.77107 0 0 0 
23 2 -7.03532 -2.28094 -4.72259 0 0 0 
24 2 -6.45559 -1.1665 -5.98703 0 0 0 
25 2 -5.91351 -2.85393 -5.98063 0 0 0 
26 1 -6.21013 -2.04332 -1.79102 0 0 0 
27 2 -5.39637 -1.76808 -1.17737 0 0 0 
28 2 -7.03532 -2.28094 -1.12889 0 0 0 
29 2 -6.45559 -1.1665 -2.39333 0 0 0 
30 2 -5.91351 -2.85393 -2.38693 0 0 0 
83 2 -2.88171 -6.36304 -4.72259 0 0 0 
88 2 -2.88171 -6.36304 -1.12889 0 0 0 
103 2 -2.88171 -2.28094 -4.72259 0 0 0 
108 2 -2.88171 -2.28094 -1.12889 0 0 0 
11 1 -6.21013 -6.12542 1.80267 0 0 0 
12 2 -5.39637 -5.85018 2.41633 0 0 0 
13 2 -7.03532 -6.36304 2.46481 0 0 0 
14 2 -6.45559 -5.2486 1.20037 0 0 0 
15 2 -5.91351 -6.93603 1.20677 0 0 0 
16 1 -6.21013 -6.12542 5.39637 0 0 0 
17 2 -5.39637 -5.85018 6.01003 0 0 0 
18 2 -7.03532 -6.36303 6.05851 0 0 0 
19 2 -6.45559 -5.2486 4.79407 0 0 0 
20 2 -5.91352 -6.93603 4.80047 0 0 0 
31 1 -6.21013 -2.04332 1.80268 0 0 0 
32 2 -5.39637 -1.76808 2.41633 0 0 0 
33 2 -7.03532 -2.28094 2.46481 0 0 0 
34 2 -6.45559 -1.1665 1.20037 0 0 0 
35 2 -5.91351 -2.85393 1.20677 0 0 0 
36 1 -6.21013 -2.04332 5.39638 0 0 0 
37 2 -5.39637 -1.76808 6.01003 0 0 0 
38 2 -7.03532 -2.28093 6.05851 0 0 0 
39 2 -6.45559 -1.1665 4.79407 0 0 0 
40 2 -5.91352 -2.85393 4.80047 0 0 0 
93 2 -2.88172 -6.36304 2.46481 0 0 0 
98 2 -2.88172 -6.36303 6.05851 0 0 0 
113 2 -2.88172 -2.28094 2.46481 0 0 0 
118 2 -2.88172 -2.28093 6.05851 0 0 0 
41 1 -6.21013 2.03878 -5.38472 0 0 0 
42 2 -5.39637 2.31402 -4.77107 0 0 0 
43 2 -7.03532 1.80117 -4.72259 0 0 0 
44 2 -6.45559 2.9156 -5.98703 0 0 0 
45 2 -5.91352 1.22816 -5.98063 0 0 0 
46 1 -6.21013 2.03878 -1.79102 0 0 0 
47 2 -5.39637 2.31402 -1.17737 0 0 0 
48 2 -7.03532 1.80117 -1.12889 0 0 0 
49 2 -6.45559 2.9156 -2.39333 0 0 0 
50 2 -5.91352 1.22816 -2.38693 0 0 0 
61 1 -6.21013 6.12088 -5.38472 0 0 0 
62 2 -5.39637 6.39611 -4.77107 0 0 0 
63 2 -7.03532 5.88327 -4.72259 0 0 0 
64 2 -6.45559 6.9977 -5.98703 0 0 0 
65 2 -5.91352 5.31027 -5.98063 0 0 0 
66 1 -6.21013 6.12088 -1.79102 0 0 0 
67 2 -5.39637 6.39612 -1.17737 0 0 0 
68 2 -7.03532 5.88327 -1.12889 0 0 0 
69 2 -6.45559 6.9977 -2.39333 0 0 0 
70 2 -5.91352 5.31027 -2.38693 0 0 0 
123 2 -2.88172 1.80117 -4.72259 0 0 0 
128 2 -2.88172 1.80117 -1.12889 0 0 0 
143 2 -2.88172 5.88327 -4.72259 0 0 0 
148 2 -2.88172 5.88327 -1.12889 0 0 0 
51 1 -6.21013 2.03878 1.80268 0 0 0 
52 2 -5.39637 2.31402 2.41633 0 0 0 
53 2 -7.03532 1.80117 2.46481 0 0 0 
54 2 -6.45559 2.9156 1.20037 0 0 0 
55 2 -5.91352 1.22816 1.20677 0 0 0 
56 1 -6.21013 2.03878 5.39638 0 0 0 
57 2 -5.39637 2.31401 6.01003 0 0 0 
58 2 -7.03532 1.80117 6.05851 0 0 0 
59 2 -6.45558 2.9156 4.79407 0 0 0 
60 2 -5.91352 1.22816 4.80047 0 0 0 
71 1 -6.21013 6.12088 1.80268 0 0 0 
72 2 -5.39637 6.39611 2.41633 0 0 0 
73 2 -7.03532 5.88327 2.46481 0 0 0 
74 2 -6.45559 6.9977 1.20037 0 0 0 
75 2 -5.91352 5.31027 1.20677 0 0 0 
76 1 -6.21013 6.12088 5.39638 0 0 0 
77 2 -5.39637 6.39611 6.01003 0 0 0 
78 2 -7.03532 5.88327 6.05851 0 0 0 
79 2 -6.45558 6.9977 4.79407 0 0 0 
80 2 -5.91352 5.31026 4.80047 0 0 0 
133 2 -2.88172 1.80117 2.46481 0 0 0 
138 2 -2.88172 1.80117 6.05851 0 0 0 
153 2 -2.88172 5.88327 2.46481 0 0 0 
158 2 -2.88172 5.88327 6.05851 0 0 0 
81 1 -2.05652 -6.12542 -5.38473 0 0 0 
82 2 -1.24277 -5.85018 -4.77107 0 0 0 
84 2 -2.30199 -5.2486 -5.98703 0 0 0 
85 2 -1.75991 -6.93603 -5.98063 0 0 0 
86 1 -2.05652 -6.12542 -1.79103 0 0 0 
87 2 -1.24277 -5.85018 -1.17737 0 0 0 
89 2 -2.30199 -5.2486 -2.39333 0 0 0 
90 2 -1.75991 -6.93603 -2.38693 0 0 0 
101 1 -2.05652 -2.04332 -5.38472 0 0 0 
102 2 -1.24277 -1.76808 -4.77107 0 0 0 
104 2 -2.30199 -1.1665 -5.98703 0 0 0 
105 2 -1.75991 -2.85393 -5.98063 0 0 0 
106 1 -2.05652 -2.04332 -1.79102 0 0 0 
107 2 -1.24277 -1.76808 -1.17737 0 0 0 
109 2 -2.30199 -1.1665 -2.39333 0 0 0 
110 2 -1.75991 -2.85393 -2.38693 0 0 0 
161 1 2.09708 -6.12542 -5.38473 0 0 0 
163 2 1.27189 -6.36304 -4.72259 0 0 0 
164 2 1.85161 -5.2486 -5.98703 0 0 0 
165 2 2.39369 -6.93603 -5.98063 0 0 0 
166 1 2.09708 -6.12542 -1.79103 0 0 0 
168 2 1.27189 -6.36304 -1.12889 0 0 0 
169 2 1.85161 -5.2486 -2.39333 0 0 0 
170 2 2.39369 -6.93603 -2.38693 0 0 0 
181 1 2.09708 -2.04332 -5.38473 0 0 0 
183 2 1.27189 -2.28094 -4.72259 0 0 0 
184 2 1.85161 -1.1665 -5.98703 0 0 0 
185 2 2.39369 -2.85393 -5.98063 0 0 0 
186 1 2.09708 -2.04332 -1.79102 0 0 0 
188 2 1.27189 -2.28094 -1.12889 0 0 0 
189 2 1.85161 -1.1665 -2.39333 0 0 0 
190 2 2.39369 -2.85393 -2.38693 0 0 0 
91 1 -2.05652 -6.12542 1.80267 0 0 0 
92 2 -1.24277 -5.85018 2.41633 0 0 0 
94 2 -2.30199 -5.2486 1.20037 0 0 0 
95 2 -1.75991 -6.93603 1.20677 0 0 0 
96 1 -2.05652 -6.12542 5.39637 0 0 0 
97 2 -1.24277 -5.85018 6.01003 0 0 0 
99 2 -2.30199 -5.2486 4.79407 0 0 0 
100 2 -1.75991 -6.93603 4.80047 0 0 0 
111 1 -2.05652 -2.04332 1.80268 0 0 0 
112 2 -1.24277 -1.76808 2.41633 0 0 0 
114 2 -2.30199 -1.1665 1.20037 0 0 0 
115 2 -1.75991 -2.85393 1.20677 0 0 0 
116 1 -2.05652 -2.04332 5.39638 0 0 0 
117 2 -1.24277 -1.76808 6.01003 0 0 0 
119 2 -2.30199 -1.1665 4.79407 0 0 0 
120 2 -1.75991 -2.85393 4.80047 0 0 0 
171 1 2.09708 -6.12542 1.80267 0 0 0 
173 2 1.27189 -6.36304 2.46481 0 0 0 
174 2 1.85161 -5.2486 1.20037 0 0 0 