********************************************************************************
*                       GENERAL UTILITY LATTICE PROGRAM                        *
*                                 Julian Gale                                  *
*                      Nanochemistry Research Institute                        *
*                           Department of Chemistry                            *
*                    Curtin University, Western Australia                      *
********************************************************************************
* Version = 4.1.0 * Last modified =   7th July 2013                            *
********************************************************************************
*  optimise     - perform optimisation run                                     *
*  conp         - constant pressure calculation                                *
*  property     - calculate properties for final geometry                      *
*  defect       - perform defect calculation after bulk run                    *
*  regi_before  - output region 1 at start of defect calculation               *
********************************************************************************
* Example of defect impurity calc : Li substituted into MgO                    *
********************************************************************************


  Job Started  at 09:00.37 29th July       2013                               

  Number of CPUs =     1

  Host name      = M-A0002884.local                        


  Total number of configurations input =   1

********************************************************************************
*  Input for Configuration =   1                                               *
********************************************************************************

  Formula = OMg                                                         

  Number of irreducible atoms/shells =       3


  Total number atoms/shells =       3

  Dimensionality = 3               :  Bulk   


  Symmetry :

  Crystal family                   :  Cubic       
  Crystal class  (Groth - 1921)    :  Cubic Hexakisoctahedral              

  Space group (centrosymmetric)    :  F M 3 M         

  Patterson group                  :  F m -3 m 

  Cartesian lattice vectors (Angstroms) :

        0.000000    2.106000    2.106000
        2.106000    0.000000    2.106000
        2.106000    2.106000    0.000000

  Primitive cell parameters :            Full cell parameters :

  a =   2.9783    alpha =  60.0000       a =   4.2120    alpha =  90.0000
  b =   2.9783    beta  =  60.0000       b =   4.2120    beta  =  90.0000
  c =   2.9783    gamma =  60.0000       c =   4.2120    gamma =  90.0000

  Initial volumes (Angstroms**3):

  Primitive cell =          18.681214    Full cell =          74.724856

  Temperature of configuration =  0.000     K 

  Pressure of configuration =         0.000 GPa 

  Fractional coordinates of asymmetric unit :

--------------------------------------------------------------------------------
   No.  Atomic       x           y          z         Charge      Occupancy
        Label      (Frac)      (Frac)     (Frac)        (e)         (Frac)  
--------------------------------------------------------------------------------
      1 O     c    0.500000    0.500000    0.500000     0.86902    1.000000    
      2 Mg    c    0.000000    0.000000    0.000000     2.00000    1.000000    
      3 O     s    0.500000    0.500000    0.500000    -2.86902    1.000000    
--------------------------------------------------------------------------------


  Constraints : 

--------------------------------------------------------------------------------
  Constraint no.      Unconstrained     Constrained    Coefficient    Offset
                         Variable         Variable
--------------------------------------------------------------------------------
           1              Strain 1        Strain 2       1.00000      0.0000
           2              Strain 1        Strain 3       1.00000      0.0000
--------------------------------------------------------------------------------


********************************************************************************
*  General input information                                                   *
********************************************************************************

  Species output for all configurations : 

--------------------------------------------------------------------------------
  Species    Type    Atomic    Atomic    Charge       Radii (Angs)     Library
                     Number     Mass       (e)     Cova   Ionic  VDW   Symbol
--------------------------------------------------------------------------------
    Li       Core        3       6.94   1.000000   0.680  0.000  1.800          
    O        Core        8      16.00   0.869020   0.730  0.000  1.360          
    Mg       Core       12      24.31   2.000000   1.100  0.000  1.640          
    O        Shell       8       0.00  -2.869020   0.730  0.000  1.360          
--------------------------------------------------------------------------------


  Lattice summation method               =    Ewald          (3-D)
                                         =    Parry          (2-D)
                                         =    Saunders et al (1-D)
  Accuracy factor for lattice sums       =   12.000


  Time limit = Infinity

  Maximum range for interatomic potentials =    100000.000000 Angstroms

  General interatomic potentials :

--------------------------------------------------------------------------------
Atom  Types   Potential         A         B         C         D     Cutoffs(Ang)
  1     2                                                            Min    Max 
--------------------------------------------------------------------------------
Mg   c O    s Buckingham    0.128E+04 0.300      0.00      0.00     0.000  8.000
Li   c O    s Buckingham     816.     0.261      0.00      0.00     0.000  8.000
O    s O    s Buckingham    0.128E+04 0.300      27.9      0.00     0.000 10.000
O    c O    s Spring (c-s)   74.9      0.00      0.00      0.00     0.000  0.800
--------------------------------------------------------------------------------

********************************************************************************
*  Output for configuration   1                                                *
********************************************************************************


  Components of energy : 

--------------------------------------------------------------------------------
  Interatomic potentials     =           7.01578450 eV
  Monopole - monopole (real) =          -4.34238722 eV
  Monopole - monopole (recip)=         -43.45344934 eV
  Monopole - monopole (total)=         -47.79583656 eV
--------------------------------------------------------------------------------
  Total lattice energy : 
    Primitive unit cell      =         -40.78005207 eV
    Non-primitive unit cell  =        -163.12020827 eV
--------------------------------------------------------------------------------
  Total lattice energy (in kJmol-1): 
    Primitive unit cell      =           -3934.6516 kJ/(mole unit cells)
    Non-primitive unit cell  =          -15738.6066 kJ/(mole unit cells)
--------------------------------------------------------------------------------


  Number of variables =        1

  Maximum number of calculations  =          1000
  Maximum Hessian update interval =            10
  Maximum step size               =   1.000000000
  Maximum parameter tolerance     =   0.000010000
  Maximum function  tolerance     =   0.000010000
  Maximum gradient  tolerance     =   0.001000000
  Maximum gradient  component     =   0.010000000

  Symmetry constrained optimisation

  Symmetry used for second derivatives

  Cell parameters to be optimised using strains

  Newton-Raphson optimiser to be used

  BFGS hessian update to be used

  Start of bulk optimisation :

  Cycle:      0 Energy:       -40.780052  Gnorm:      3.180029  CPU:    0.005
  ** Hessian calculated **
  Cycle:      1 Energy:       -40.798930  Gnorm:      0.023749  CPU:    0.007


  **** Optimisation achieved ****


  Final energy =     -40.79893139 eV
  Final Gnorm  =       0.00000308

  Components of energy : 

--------------------------------------------------------------------------------
  Interatomic potentials     =           6.42580798 eV
  Monopole - monopole (real) =          -4.29050142 eV
  Monopole - monopole (recip)=         -42.93423795 eV
  Monopole - monopole (total)=         -47.22473937 eV
--------------------------------------------------------------------------------
  Total lattice energy : 
    Primitive unit cell      =         -40.79893139 eV
    Non-primitive unit cell  =        -163.19572558 eV
--------------------------------------------------------------------------------
  Total lattice energy (in kJmol-1): 
    Primitive unit cell      =           -3936.4732 kJ/(mole unit cells)
    Non-primitive unit cell  =          -15745.8928 kJ/(mole unit cells)
--------------------------------------------------------------------------------

  Final asymmetric unit coordinates :

--------------------------------------------------------------------------------
   No.  Atomic        x           y           z         Radius
        Label       (Frac)      (Frac)      (Frac)       (Angs) 
--------------------------------------------------------------------------------
     1  O     c     0.500000    0.500000    0.500000    0.000000
     2  Mg    c     0.000000    0.000000    0.000000    0.000000
     3  O     s     0.500000    0.500000    0.500000    0.000000
--------------------------------------------------------------------------------

  Final Cartesian lattice vectors (Angstroms) :

        0.000000    2.131468    2.131468
        2.131468    0.000000    2.131468
        2.131468    2.131468    0.000000


  Final cell parameters and derivatives :

--------------------------------------------------------------------------------
       a            3.014351 Angstrom     dE/de1(xx)     0.000003 eV/strain
       b            3.014351 Angstrom     dE/de2(yy)     0.000000 eV/strain
       c            3.014351 Angstrom     dE/de3(zz)     0.000000 eV/strain
       alpha       60.000000 Degrees      dE/de4(yz)     0.000000 eV/strain
       beta        60.000000 Degrees      dE/de5(xz)     0.000000 eV/strain
       gamma       60.000000 Degrees      dE/de6(xy)     0.000000 eV/strain
--------------------------------------------------------------------------------

  Primitive cell volume =            19.367189 Angs**3

  Density of cell =      3.456227 g/cm**3

  Non-primitive lattice parameters :

  a    =     4.262936  b   =     4.262936  c    =     4.262936
  alpha=    90.000000  beta=    90.000000  gamma=    90.000000

  Non-primitive cell volume =            77.468756 Angs**3


  Final internal derivatives :

--------------------------------------------------------------------------------
   No.  Atomic          a             b             c           Radius
        Label          (eV)          (eV)          (eV)        (eV/Angs)
--------------------------------------------------------------------------------
      1 O     c       0.000000      0.000000      0.000000      0.000000
      2 Mg    c       0.000000      0.000000      0.000000      0.000000
      3 O     s       0.000000      0.000000      0.000000      0.000000
--------------------------------------------------------------------------------
  Maximum abs         0.000000      0.000000      0.000000      0.000000
--------------------------------------------------------------------------------


  Born effective charge tensors : 

-------------------------------------------------------------------------------
  Atom             x           y             z
-------------------------------------------------------------------------------
   1 O     x      -2.0405     -0.0000      0.0000
           y      -0.0000     -2.0405     -0.0000
           z       0.0000     -0.0000     -2.0405
-------------------------------------------------------------------------------
   2 Mg    x       2.0405      0.0000     -0.0000
           y       0.0000      2.0405      0.0000
           z      -0.0000      0.0000      2.0405
-------------------------------------------------------------------------------




  Elastic Constant Matrix: (Units=GPa)

-------------------------------------------------------------------------------
  Indices      1         2         3         4         5         6    
-------------------------------------------------------------------------------
       1    342.5547  180.2137  180.2137   -0.0000   -0.0000   -0.0000
       2    180.2137  342.5547  180.2137    0.0000   -0.0000   -0.0000
       3    180.2137  180.2137  342.5547    0.0000   -0.0000   -0.0000
       4     -0.0000    0.0000    0.0000  180.2137   -0.0000   -0.0000
       5     -0.0000   -0.0000   -0.0000   -0.0000  180.2137   -0.0000
       6     -0.0000   -0.0000   -0.0000   -0.0000   -0.0000  180.2137
-------------------------------------------------------------------------------


  Elastic Compliance Matrix: (Units=1/GPa)

-------------------------------------------------------------------------------
  Indices      1         2         3         4         5         6    
-------------------------------------------------------------------------------
       1    0.004581 -0.001579 -0.001579  0.000000  0.000000 -0.000000
       2   -0.001579  0.004581 -0.001579 -0.000000 -0.000000  0.000000
       3   -0.001579 -0.001579  0.004581 -0.000000  0.000000  0.000000
       4    0.000000 -0.000000 -0.000000  0.005549  0.000000  0.000000
       5    0.000000 -0.000000  0.000000  0.000000  0.005549  0.000000
       6   -0.000000  0.000000  0.000000  0.000000  0.000000  0.005549
-------------------------------------------------------------------------------

  Mechanical properties :

-------------------------------------------------------------------------------
  Convention :                    Reuss         Voigt         Hill
-------------------------------------------------------------------------------
  Bulk  Modulus (GPa)     =     234.32737     234.32737     234.32737
  Shear Modulus (GPa)     =     121.10527     140.59643     130.85085
-------------------------------------------------------------------------------
  Velocity S-wave (km/s)  =       5.91944       6.37802       6.15300
  Velocity P-wave (km/s)  =      10.70132      11.04706      10.87556
-------------------------------------------------------------------------------
  Compressibility (1/GPa) =    0.00426753
-------------------------------------------------------------------------------
  Stress axis :                     x             y             z
-------------------------------------------------------------------------------
  Youngs Moduli (GPa)     =     218.30473     218.30473     218.30473
-------------------------------------------------------------------------------
  Poissons Ratio (x)      =                     0.34473       0.34473
  Poissons Ratio (y)      =       0.34473                     0.34473
  Poissons Ratio (z)      =       0.34473       0.34473
-------------------------------------------------------------------------------


  Piezoelectric Strain Matrix: (Units=C/m**2)

-------------------------------------------------------------------------------
  Indices      1         2         3         4         5         6    
-------------------------------------------------------------------------------
       x    -0.00000   0.00000   0.00000   0.00000   0.00000   0.00000
       y     0.00000   0.00000   0.00000   0.00000   0.00000   0.00000
       z     0.00000   0.00000   0.00000   0.00000   0.00000   0.00000
-------------------------------------------------------------------------------


  Piezoelectric Stress Matrix: (Units=10**-11 C/N)

-------------------------------------------------------------------------------
  Indices      1         2         3         4         5         6    
-------------------------------------------------------------------------------
       x    -0.00000   0.00000   0.00000   0.00000   0.00000   0.00000
       y     0.00000  -0.00000   0.00000   0.00000   0.00000   0.00000
       z     0.00000   0.00000  -0.00000   0.00000   0.00000   0.00000
-------------------------------------------------------------------------------


  Static dielectric constant tensor : 

-------------------------------------------------------------------------------
              x         y         z
-------------------------------------------------------------------------------
       x    10.87129   0.00000  -0.00000
       y     0.00000  10.87129   0.00000
       z    -0.00000   0.00000  10.87129
--------------------------------------------------------------------------------

  High frequency dielectric constant tensor : 

-------------------------------------------------------------------------------
              x         y         z
-------------------------------------------------------------------------------
       x     2.16136   0.00000   0.00000
       y     0.00000   2.16136  -0.00000
       z     0.00000  -0.00000   2.16136
-------------------------------------------------------------------------------

  Static refractive indices : 

-------------------------------------------------------------------------------
    1 =    3.29716      2 =    3.29716      3 =    3.29716
-------------------------------------------------------------------------------

  High frequency refractive indices : 

-------------------------------------------------------------------------------
    1 =    1.47016      2 =    1.47016      3 =    1.47016
-------------------------------------------------------------------------------


  Time to end of optimisation =       0.0108 seconds

********************************************************************************
*  Defect calculation for configuration   1 :                                  *
********************************************************************************

  Total number of defects =      1

  Total charge on defect  =  -1.00

  Defect centre is at atom Mg   

  Region 1 radius =   4.0000      Number of ions =     41

  Number of symmetry inequivalent region 1 ions  =      6

  Region 2 radius =  10.0000      Number of ions =    656

  Number of symmetry inequivalent region 2a ions =     29

  Region 2a mode = 4 : screened electrostatics due to region 1 
                       neglect correction to region 1 forces from 2a
                       region 2a displacements based on defects only

  Region 2a ions will only interact with defects in region 1

  Impurities:

--------------------------------------------------------------------------------
    Specification type     Symbol/Number         x          y          z
--------------------------------------------------------------------------------
    Symbol/Symbol           Li     Mg   
--------------------------------------------------------------------------------


  Region 1 (Absolute coordinates) :

--------------------------------------------------------------------------------
   No.   Atomic       x            y             z         Charge   Occupancy
         Label      (Angs)       (Angs)        (Angs)        (e)    
--------------------------------------------------------------------------------
     1  Li    c      0.0000       0.0000       0.0000      1.00000    1.00000
     2  O     c     -2.1315       0.0000       0.0000      0.86902    1.00000
     3  O     c      0.0000       2.1315       0.0000      0.86902    1.00000
     4  O     c      0.0000       0.0000       2.1315      0.86902    1.00000
     5  O     c      0.0000       0.0000      -2.1315      0.86902    1.00000
     6  O     c      0.0000      -2.1315       0.0000      0.86902    1.00000
     7  O     c      2.1315       0.0000       0.0000      0.86902    1.00000
     8  Mg    c      2.1315       2.1315       0.0000      2.00000    1.00000
     9  Mg    c     -2.1315      -2.1315       0.0000      2.00000    1.00000
    10  Mg    c      2.1315       0.0000       2.1315      2.00000    1.00000
    11  Mg    c      0.0000      -2.1315       2.1315      2.00000    1.00000
    12  Mg    c     -2.1315       0.0000      -2.1315      2.00000    1.00000
    13  Mg    c      0.0000       2.1315      -2.1315      2.00000    1.00000
    14  Mg    c      0.0000       2.1315       2.1315      2.00000    1.00000
    15  Mg    c     -2.1315       0.0000       2.1315      2.00000    1.00000
    16  Mg    c     -2.1315       2.1315       0.0000      2.00000    1.00000
    17  Mg    c      0.0000      -2.1315      -2.1315      2.00000    1.00000
    18  Mg    c      2.1315       0.0000      -2.1315      2.00000    1.00000
    19  Mg    c      2.1315      -2.1315       0.0000      2.00000    1.00000
    20  O     c      2.1315       2.1315       2.1315      0.86902    1.00000
    21  O     c     -2.1315      -2.1315       2.1315      0.86902    1.00000
    22  O     c     -2.1315       2.1315      -2.1315      0.86902    1.00000
    23  O     c     -2.1315       2.1315       2.1315      0.86902    1.00000
    24  O     c     -2.1315      -2.1315      -2.1315      0.86902    1.00000
    25  O     c      2.1315       2.1315      -2.1315      0.86902    1.00000
    26  O     c      2.1315      -2.1315       2.1315      0.86902    1.00000
    27  O     c      2.1315      -2.1315      -2.1315      0.86902    1.00000
    28  O     s     -2.1315       0.0000       0.0000     -2.86902    1.00000
    29  O     s      0.0000       2.1315       0.0000     -2.86902    1.00000
    30  O     s      0.0000       0.0000       2.1315     -2.86902    1.00000
    31  O     s      0.0000       0.0000      -2.1315     -2.86902    1.00000
    32  O     s      0.0000      -2.1315       0.0000     -2.86902    1.00000
    33  O     s      2.1315       0.0000       0.0000     -2.86902    1.00000
    34  O     s      2.1315       2.1315       2.1315     -2.86902    1.00000
    35  O     s     -2.1315      -2.1315       2.1315     -2.86902    1.00000
    36  O     s     -2.1315       2.1315      -2.1315     -2.86902    1.00000
    37  O     s     -2.1315       2.1315       2.1315     -2.86902    1.00000
    38  O     s     -2.1315      -2.1315      -2.1315     -2.86902    1.00000
    39  O     s      2.1315       2.1315      -2.1315     -2.86902    1.00000
    40  O     s      2.1315      -2.1315       2.1315     -2.86902    1.00000
    41  O     s      2.1315      -2.1315      -2.1315     -2.86902    1.00000
--------------------------------------------------------------------------------



  Symmetry reduced region 1 (Relative to defect centre) :

--------------------------------------------------------------------------------
   No.   Atomic       x            y             z       Radius  Multiplicity   
         Label      (Angs)       (Angs)        (Angs)    (Angs)     
--------------------------------------------------------------------------------
     1  Li    c      0.0000       0.0000       0.0000    0.0000     1    Defect
     2  O     c     -2.1315 *     0.0000       0.0000    0.0000     6          
     3  Mg    c      2.1315 *     2.1315       0.0000    0.0000    12          
     4  O     c      2.1315 *     2.1315       2.1315    0.0000     8          
     5  O     s     -2.1315 *     0.0000       0.0000    0.0000     6          
     6  O     s      2.1315 *     2.1315       2.1315    0.0000     8          
--------------------------------------------------------------------------------


  Constraints on symmetry reduced coordinates :

--------------------------------------------------------------------------------
  Constraint no.      Unconstrained     Constrained    Coefficient    
                         Variable         Variable
--------------------------------------------------------------------------------
           1                 3 x             3 y         1.00000
           2                 4 x             4 y         1.00000
           3                 4 x             4 z         1.00000
           4                 6 x             6 y         1.00000
           5                 6 x             6 z         1.00000
--------------------------------------------------------------------------------


  Components of defect energy : 

--------------------------------------------------------------------------------
  Region 1 - region 1                   =     23.86459456 eV
  Region 1 - region 2a (unrelaxed)      =     -5.21854591 eV
  Region 1 - 2a (relaxed - correction)  =     -1.96402038 eV
  Region 1 (Total)                      =     16.68202827 eV
  Region 2a                             =      0.98154186 eV
  Region 2b                             =     -0.63808627 eV
--------------------------------------------------------------------------------
  Total defect energy                   =     17.02548386 eV
--------------------------------------------------------------------------------

  Largest displacement in region 2 =   0.0167 Angstroms


  Number of variables =        5

  Maximum number of calculations  =        1000
  Maximum Hessian update interval =          10
  Maximum step size               =   1.0000000
  Maximum parameter tolerance     =   0.0000100
  Maximum function  tolerance     =   0.0000100
  Maximum gradient  tolerance     =   0.0010000

  Symmetry adapted optimisation

  Symmetry to be used for second derivatives

  Newton-Raphson optimiser to be used

  BFGS hessian update to be used

  Start of defect optimisation :

  Cycle:      0 Defect Energy:  17.025484  Gnorm:    16.225731  CPU:    0.020
  ** Hessian calculated **
  Cycle:      1 Defect Energy:  14.895717  Gnorm:     0.720784  CPU:    0.025
  Cycle:      2 Defect Energy:  14.895680  Gnorm:     0.508714  CPU:    0.027
  Cycle:      3 Defect Energy:  14.896232  Gnorm:     0.356228  CPU:    0.028
  Cycle:      4 Defect Energy:  14.896898  Gnorm:     0.249399  CPU:    0.029
  Cycle:      5 Defect Energy:  14.897501  Gnorm:     0.174598  CPU:    0.030
  Cycle:      6 Defect Energy:  14.897989  Gnorm:     0.122227  CPU:    0.032
  Cycle:      7 Defect Energy:  14.898364  Gnorm:     0.085563  CPU:    0.033
  Cycle:      8 Defect Energy:  14.898643  Gnorm:     0.059897  CPU:    0.034
  Cycle:      9 Defect Energy:  14.898846  Gnorm:     0.041929  CPU:    0.035
  Cycle:     10 Defect Energy:  14.898992  Gnorm:     0.029351  CPU:    0.037
  ** Hessian calculated **
  Cycle:     11 Defect Energy:  14.899096  Gnorm:     0.020545  CPU:    0.040
  Cycle:     12 Defect Energy:  14.899169  Gnorm:     0.014382  CPU:    0.041
  Cycle:     13 Defect Energy:  14.899222  Gnorm:     0.010067  CPU:    0.042
  Cycle:     14 Defect Energy:  14.899258  Gnorm:     0.007047  CPU:    0.044
  Cycle:     15 Defect Energy:  14.899284  Gnorm:     0.004933  CPU:    0.045
  Cycle:     16 Defect Energy:  14.899302  Gnorm:     0.003453  CPU:    0.047
  Cycle:     17 Defect Energy:  14.899315  Gnorm:     0.002417  CPU:    0.048
  Cycle:     18 Defect Energy:  14.899324  Gnorm:     0.001692  CPU:    0.049
  Cycle:     19 Defect Energy:  14.899330  Gnorm:     0.001184  CPU:    0.052


  **** Optimisation achieved ****


  Final defect energy  =       14.89933321
  Final defect Gnorm   =        0.00091788

  Components of defect energy : 

--------------------------------------------------------------------------------
  Region 1 - region 1                   =     21.34370867 eV
  Region 1 - region 2a (unrelaxed)      =     -4.98892959 eV
  Region 1 - 2a (relaxed - correction)  =     -1.62995126 eV
  Region 1 (Total)                      =     14.72482783 eV
  Region 2a                             =      0.81259165 eV
  Region 2b                             =     -0.63808627 eV
--------------------------------------------------------------------------------
  Total defect energy                   =     14.89933321 eV
--------------------------------------------------------------------------------

  Largest displacement in region 2 =   0.0167 Angstroms

  Final coordinates of region 1 :

--------------------------------------------------------------------------------
   No.  Atomic        x           y           z          Radius      Charge
        Label       (Angs)      (Angs)      (Angs)       (Angs)       (e) 
--------------------------------------------------------------------------------
     1  Li    c     0.000000    0.000000    0.000000    0.000000    1.000000
     2  O     c    -2.174952    0.000000    0.000000    0.000000    0.869020
     3  O     c     0.000000    2.174952    0.000000    0.000000    0.869020
     4  O     c     0.000000    0.000000    2.174952    0.000000    0.869020
     5  O     c     0.000000    0.000000   -2.174952    0.000000    0.869020
     6  O     c     0.000000   -2.174952    0.000000    0.000000    0.869020
     7  O     c     2.174952    0.000000    0.000000    0.000000    0.869020
     8  Mg    c     2.086283    2.086283    0.000000    0.000000    2.000000
     9  Mg    c    -2.086283   -2.086283    0.000000    0.000000    2.000000
    10  Mg    c     2.086283    0.000000    2.086283    0.000000    2.000000
    11  Mg    c     0.000000   -2.086283    2.086283    0.000000    2.000000
    12  Mg    c    -2.086283    0.000000   -2.086283    0.000000    2.000000
    13  Mg    c     0.000000    2.086283   -2.086283    0.000000    2.000000
    14  Mg    c     0.000000    2.086283    2.086283    0.000000    2.000000
    15  Mg    c    -2.086283    0.000000    2.086283    0.000000    2.000000
    16  Mg    c    -2.086283    2.086283    0.000000    0.000000    2.000000
    17  Mg    c     0.000000   -2.086283   -2.086283    0.000000    2.000000
    18  Mg    c     2.086283    0.000000   -2.086283    0.000000    2.000000
    19  Mg    c     2.086283   -2.086283    0.000000    0.000000    2.000000
    20  O     c     2.146397    2.146397    2.146397    0.000000    0.869020
    21  O     c    -2.146397   -2.146397    2.146397    0.000000    0.869020
    22  O     c    -2.146397    2.146397   -2.146397    0.000000    0.869020
    23  O     c    -2.146397    2.146397    2.146397    0.000000    0.869020
    24  O     c    -2.146397   -2.146397   -2.146397    0.000000    0.869020
    25  O     c     2.146397    2.146397   -2.146397    0.000000    0.869020
    26  O     c     2.146397   -2.146397    2.146397    0.000000    0.869020
    27  O     c     2.146397   -2.146397   -2.146397    0.000000    0.869020
    28  O     s    -2.192746    0.000000    0.000000    0.000000   -2.869020
    29  O     s     0.000000    2.192746    0.000000    0.000000   -2.869020
    30  O     s     0.000000    0.000000    2.192746    0.000000   -2.869020
    31  O     s     0.000000    0.000000   -2.192746    0.000000   -2.869020
    32  O     s     0.000000   -2.192746    0.000000    0.000000   -2.869020
    33  O     s     2.192746    0.000000    0.000000    0.000000   -2.869020
    34  O     s     2.147472    2.147472    2.147472    0.000000   -2.869020
    35  O     s    -2.147472   -2.147472    2.147472    0.000000   -2.869020
    36  O     s    -2.147472    2.147472   -2.147472    0.000000   -2.869020
    37  O     s    -2.147472    2.147472    2.147472    0.000000   -2.869020
    38  O     s    -2.147472   -2.147472   -2.147472    0.000000   -2.869020
    39  O     s     2.147472    2.147472   -2.147472    0.000000   -2.869020
    40  O     s     2.147472   -2.147472    2.147472    0.000000   -2.869020
    41  O     s     2.147472   -2.147472   -2.147472    0.000000   -2.869020
--------------------------------------------------------------------------------

  Final coordinates of symmetry reduced region 1 (relative to defect centre):

--------------------------------------------------------------------------------
   No.  Atomic        x           y           z          Charge
        Label       (Angs)      (Angs)      (Angs)         (e) 
--------------------------------------------------------------------------------
     1  Li    c     0.000000    0.000000    0.000000    1.000000
     2  O     c    -2.174952    0.000000    0.000000    0.869020
     3  Mg    c     2.086283    2.086283    0.000000    2.000000
     4  O     c     2.146397    2.146397    2.146397    0.869020
     5  O     s    -2.192746    0.000000    0.000000   -2.869020
     6  O     s     2.147472    2.147472    2.147472   -2.869020
--------------------------------------------------------------------------------


  Final derivatives for region 1 :

--------------------------------------------------------------------------------
   No.  Atomic          x             y             z            Radius
        Label       (eV/Angs)     (eV/Angs)     (eV/Angs)       (eV/Angs)
--------------------------------------------------------------------------------
     1  Li    c       0.000000      0.000000      0.000000      0.000000
     2  O     c      -0.000725      0.000000      0.000000      0.000000
     3  Mg    c       0.001475      0.000000      0.000000      0.000000
     4  O     c       0.001316      0.000000      0.000000      0.000000
     5  O     s       0.002031      0.000000      0.000000      0.000000
     6  O     s      -0.003536      0.000000      0.000000      0.000000
--------------------------------------------------------------------------------


  Time to end of optimisation  =        0.0543 seconds


  Peak dynamic memory used =       1.15 MB 


  Timing analysis for GULP :

--------------------------------------------------------------------------------
  Task / Subroutine                                          Time (Seconds)
--------------------------------------------------------------------------------
  Calculation of reciprocal space energy and derivatives          0.0001
  Calculation of reciprocal space energy using symmetry           0.0002
  Calculation of real space energy and derivatives                0.0009
  Calculation of real space energy using symmetry                 0.0046
  Calculation for region 1 energy and derivatives (2-b)           0.0202
  Calculation for region 2a energy                                0.0181
  Symmetry generation of equivalent positions                     0.0013
--------------------------------------------------------------------------------
  Total CPU time                                                  0.0546
--------------------------------------------------------------------------------


  Job Finished at 09:00.37 29th July       2013                               

