<?xml version="1.0" encoding="ISO-8859-1"?>
<modeling>
 <generator>
  <i name="program" type="string">vasp</i>
  <i name="version" type="string">4.6.35 </i>
  <i name="subversion" type="string">3Apr08 complex  parallel</i>
  <i name="platform" type="string">LinuxIFC</i>
  <i name="date" type="string">2012 09 04</i>
  <i name="time" type="string">14:21:06</i>
 </generator>
 <incar>
  <i type="string" name="SYSTEM">AgSiTa_pv.T0002.AB2C</i>
  <i type="string" name="PREC">high</i>
  <i type="string" name="ALGO">Normal</i>
  <i type="int" name="ISPIN">     1</i>
  <i type="int" name="ICHARG">    11</i>
  <i type="int" name="NELM">   120</i>
  <i type="int" name="NELMIN">     2</i>
  <i name="EDIFF">      0.00000100</i>
  <i type="int" name="IBRION">     2</i>
  <i type="int" name="NSW">     0</i>
  <i type="int" name="ISIF">     2</i>
  <i type="int" name="ISYM">     2</i>
  <i name="ENMAX">    349.78440000</i>
  <i type="int" name="NBANDS">    65</i>
  <i type="logical" name="LREAL"> F  </i>
  <i type="logical" name="LPLANE"> T  </i>
  <i type="int" name="ISMEAR">     0</i>
  <i name="SIGMA">      0.05000000</i>
  <i type="int" name="NSIM">     4</i>
  <i type="logical" name="LWAVE"> F  </i>
  <i type="logical" name="LCHARG"> F  </i>
  <i type="logical" name="LSCALU"> F  </i>
 </incar>
 <kpoints>
  <generation param="listgenerated">
   <i name="divisions" type="int">      20</i>
   <v>       0.00000000       0.00000000       0.00000000 </v>
   <v>       0.50000000       0.00000000       0.50000000 </v>
   <v>       0.50000000       0.25000000       0.75000000 </v>
   <v>       0.37500000       0.37500000       0.75000000 </v>
   <v>       0.00000000       0.00000000       0.00000000 </v>
   <v>       0.50000000       0.50000000       0.50000000 </v>
   <v>       0.62500000       0.25000000       0.62500000 </v>
   <v>       0.50000000       0.25000000       0.75000000 </v>
   <v>       0.50000000       0.50000000       0.50000000 </v>
   <v>       0.62500000       0.25000000       0.62500000 </v>
   <v>       0.50000000       0.00000000       0.50000000 </v>
  </generation>
  <varray name="kpointlist" >
   <v>       0.00000000       0.00000000       0.00000000 </v>
   <v>       0.02631579       0.00000000       0.02631579 </v>
   <v>       0.05263158       0.00000000       0.05263158 </v>
   <v>       0.07894737       0.00000000       0.07894737 </v>
   <v>       0.10526316       0.00000000       0.10526316 </v>
   <v>       0.13157895       0.00000000       0.13157895 </v>
   <v>       0.15789474       0.00000000       0.15789474 </v>
   <v>       0.18421053       0.00000000       0.18421053 </v>
   <v>       0.21052632       0.00000000       0.21052632 </v>
   <v>       0.23684211       0.00000000       0.23684211 </v>
   <v>       0.26315789       0.00000000       0.26315789 </v>
   <v>       0.28947368       0.00000000       0.28947368 </v>
   <v>       0.31578947       0.00000000       0.31578947 </v>
   <v>       0.34210526       0.00000000       0.34210526 </v>
   <v>       0.36842105       0.00000000       0.36842105 </v>
   <v>       0.39473684       0.00000000       0.39473684 </v>
   <v>       0.42105263       0.00000000       0.42105263 </v>
   <v>       0.44736842       0.00000000       0.44736842 </v>
   <v>       0.47368421       0.00000000       0.47368421 </v>
   <v>       0.50000000       0.00000000       0.50000000 </v>
   <v>       0.50000000       0.00000000       0.50000000 </v>
   <v>       0.50000000       0.01315789       0.51315789 </v>
   <v>       0.50000000       0.02631579       0.52631579 </v>
   <v>       0.50000000       0.03947368       0.53947368 </v>
   <v>       0.50000000       0.05263158       0.55263158 </v>
   <v>       0.50000000       0.06578947       0.56578947 </v>
   <v>       0.50000000       0.07894737       0.57894737 </v>
   <v>       0.50000000       0.09210526       0.59210526 </v>
   <v>       0.50000000       0.10526316       0.60526316 </v>
   <v>       0.50000000       0.11842105       0.61842105 </v>
   <v>       0.50000000       0.13157895       0.63157895 </v>
   <v>       0.50000000       0.14473684       0.64473684 </v>
   <v>       0.50000000       0.15789474       0.65789474 </v>
   <v>       0.50000000       0.17105263       0.67105263 </v>
   <v>       0.50000000       0.18421053       0.68421053 </v>
   <v>       0.50000000       0.19736842       0.69736842 </v>
   <v>       0.50000000       0.21052632       0.71052632 </v>
   <v>       0.50000000       0.22368421       0.72368421 </v>
   <v>       0.50000000       0.23684211       0.73684211 </v>
   <v>       0.50000000       0.25000000       0.75000000 </v>
   <v>       0.50000000       0.25000000       0.75000000 </v>
   <v>       0.49342105       0.25657895       0.75000000 </v>
   <v>       0.48684211       0.26315789       0.75000000 </v>
   <v>       0.48026316       0.26973684       0.75000000 </v>
   <v>       0.47368421       0.27631579       0.75000000 </v>
   <v>       0.46710526       0.28289474       0.75000000 </v>
   <v>       0.46052632       0.28947368       0.75000000 </v>
   <v>       0.45394737       0.29605263       0.75000000 </v>
   <v>       0.44736842       0.30263158       0.75000000 </v>
   <v>       0.44078947       0.30921053       0.75000000 </v>
   <v>       0.43421053       0.31578947       0.75000000 </v>
   <v>       0.42763158       0.32236842       0.75000000 </v>
   <v>       0.42105263       0.32894737       0.75000000 </v>
   <v>       0.41447368       0.33552632       0.75000000 </v>
   <v>       0.40789474       0.34210526       0.75000000 </v>
   <v>       0.40131579       0.34868421       0.75000000 </v>
   <v>       0.39473684       0.35526316       0.75000000 </v>
   <v>       0.38815789       0.36184211       0.75000000 </v>
   <v>       0.38157895       0.36842105       0.75000000 </v>
   <v>       0.37500000       0.37500000       0.75000000 </v>
   <v>       0.37500000       0.37500000       0.75000000 </v>
   <v>       0.35526316       0.35526316       0.71052632 </v>
   <v>       0.33552632       0.33552632       0.67105263 </v>
   <v>       0.31578947       0.31578947       0.63157895 </v>
   <v>       0.29605263       0.29605263       0.59210526 </v>
   <v>       0.27631579       0.27631579       0.55263158 </v>
   <v>       0.25657895       0.25657895       0.51315789 </v>
   <v>       0.23684211       0.23684211       0.47368421 </v>
   <v>       0.21710526       0.21710526       0.43421053 </v>
   <v>       0.19736842       0.19736842       0.39473684 </v>
   <v>       0.17763158       0.17763158       0.35526316 </v>
   <v>       0.15789474       0.15789474       0.31578947 </v>
   <v>       0.13815789       0.13815789       0.27631579 </v>
   <v>       0.11842105       0.11842105       0.23684211 </v>
   <v>       0.09868421       0.09868421       0.19736842 </v>
   <v>       0.07894737       0.07894737       0.15789474 </v>
   <v>       0.05921053       0.05921053       0.11842105 </v>
   <v>       0.03947368       0.03947368       0.07894737 </v>
   <v>       0.01973684       0.01973684       0.03947368 </v>
   <v>       0.00000000       0.00000000       0.00000000 </v>
   <v>       0.00000000       0.00000000       0.00000000 </v>
   <v>       0.02631579       0.02631579       0.02631579 </v>
   <v>       0.05263158       0.05263158       0.05263158 </v>
   <v>       0.07894737       0.07894737       0.07894737 </v>
   <v>       0.10526316       0.10526316       0.10526316 </v>
   <v>       0.13157895       0.13157895       0.13157895 </v>
   <v>       0.15789474       0.15789474       0.15789474 </v>
   <v>       0.18421053       0.18421053       0.18421053 </v>
   <v>       0.21052632       0.21052632       0.21052632 </v>
   <v>       0.23684211       0.23684211       0.23684211 </v>
   <v>       0.26315789       0.26315789       0.26315789 </v>
   <v>       0.28947368       0.28947368       0.28947368 </v>
   <v>       0.31578947       0.31578947       0.31578947 </v>
   <v>       0.34210526       0.34210526       0.34210526 </v>
   <v>       0.36842105       0.36842105       0.36842105 </v>
   <v>       0.39473684       0.39473684       0.39473684 </v>
   <v>       0.42105263       0.42105263       0.42105263 </v>
   <v>       0.44736842       0.44736842       0.44736842 </v>
   <v>       0.47368421       0.47368421       0.47368421 </v>
   <v>       0.50000000       0.50000000       0.50000000 </v>
   <v>       0.50000000       0.50000000       0.50000000 </v>
   <v>       0.50657895       0.48684211       0.50657895 </v>
   <v>       0.51315789       0.47368421       0.51315789 </v>
   <v>       0.51973684       0.46052632       0.51973684 </v>
   <v>       0.52631579       0.44736842       0.52631579 </v>
   <v>       0.53289474       0.43421053       0.53289474 </v>
   <v>       0.53947368       0.42105263       0.53947368 </v>
   <v>       0.54605263       0.40789474       0.54605263 </v>
   <v>       0.55263158       0.39473684       0.55263158 </v>
   <v>       0.55921053       0.38157895       0.55921053 </v>
   <v>       0.56578947       0.36842105       0.56578947 </v>
   <v>       0.57236842       0.35526316       0.57236842 </v>
   <v>       0.57894737       0.34210526       0.57894737 </v>
   <v>       0.58552632       0.32894737       0.58552632 </v>
   <v>       0.59210526       0.31578947       0.59210526 </v>
   <v>       0.59868421       0.30263158       0.59868421 </v>
   <v>       0.60526316       0.28947368       0.60526316 </v>
   <v>       0.61184211       0.27631579       0.61184211 </v>
   <v>       0.61842105       0.26315789       0.61842105 </v>
   <v>       0.62500000       0.25000000       0.62500000 </v>
   <v>       0.62500000       0.25000000       0.62500000 </v>
   <v>       0.61842105       0.25000000       0.63157895 </v>
   <v>       0.61184211       0.25000000       0.63815789 </v>
   <v>       0.60526316       0.25000000       0.64473684 </v>
   <v>       0.59868421       0.25000000       0.65131579 </v>
   <v>       0.59210526       0.25000000       0.65789474 </v>
   <v>       0.58552632       0.25000000       0.66447368 </v>
   <v>       0.57894737       0.25000000       0.67105263 </v>
   <v>       0.57236842       0.25000000       0.67763158 </v>
   <v>       0.56578947       0.25000000       0.68421053 </v>
   <v>       0.55921053       0.25000000       0.69078947 </v>
   <v>       0.55263158       0.25000000       0.69736842 </v>
   <v>       0.54605263       0.25000000       0.70394737 </v>
   <v>       0.53947368       0.25000000       0.71052632 </v>
   <v>       0.53289474       0.25000000       0.71710526 </v>
   <v>       0.52631579       0.25000000       0.72368421 </v>
   <v>       0.51973684       0.25000000       0.73026316 </v>
   <v>       0.51315789       0.25000000       0.73684211 </v>
   <v>       0.50657895       0.25000000       0.74342105 </v>
   <v>       0.50000000       0.25000000       0.75000000 </v>
   <v>       0.50000000       0.25000000       0.75000000 </v>
   <v>       0.50000000       0.26315789       0.73684211 </v>
   <v>       0.50000000       0.27631579       0.72368421 </v>
   <v>       0.50000000       0.28947368       0.71052632 </v>
   <v>       0.50000000       0.30263158       0.69736842 </v>
   <v>       0.50000000       0.31578947       0.68421053 </v>
   <v>       0.50000000       0.32894737       0.67105263 </v>
   <v>       0.50000000       0.34210526       0.65789474 </v>
   <v>       0.50000000       0.35526316       0.64473684 </v>
   <v>       0.50000000       0.36842105       0.63157895 </v>
   <v>       0.50000000       0.38157895       0.61842105 </v>
   <v>       0.50000000       0.39473684       0.60526316 </v>
   <v>       0.50000000       0.40789474       0.59210526 </v>
   <v>       0.50000000       0.42105263       0.57894737 </v>
   <v>       0.50000000       0.43421053       0.56578947 </v>
   <v>       0.50000000       0.44736842       0.55263158 </v>
   <v>       0.50000000       0.46052632       0.53947368 </v>
   <v>       0.50000000       0.47368421       0.52631579 </v>
   <v>       0.50000000       0.48684211       0.51315789 </v>
   <v>       0.50000000       0.50000000       0.50000000 </v>
   <v>       0.50000000       0.50000000       0.50000000 </v>
   <v>       0.49342105       0.49342105       0.51315789 </v>
   <v>       0.48684211       0.48684211       0.52631579 </v>
   <v>       0.48026316       0.48026316       0.53947368 </v>
   <v>       0.47368421       0.47368421       0.55263158 </v>
   <v>       0.46710526       0.46710526       0.56578947 </v>
   <v>       0.46052632       0.46052632       0.57894737 </v>
   <v>       0.45394737       0.45394737       0.59210526 </v>
   <v>       0.44736842       0.44736842       0.60526316 </v>
   <v>       0.44078947       0.44078947       0.61842105 </v>
   <v>       0.43421053       0.43421053       0.63157895 </v>
   <v>       0.42763158       0.42763158       0.64473684 </v>
   <v>       0.42105263       0.42105263       0.65789474 </v>
   <v>       0.41447368       0.41447368       0.67105263 </v>
   <v>       0.40789474       0.40789474       0.68421053 </v>
   <v>       0.40131579       0.40131579       0.69736842 </v>
   <v>       0.39473684       0.39473684       0.71052632 </v>
   <v>       0.38815789       0.38815789       0.72368421 </v>
   <v>       0.38157895       0.38157895       0.73684211 </v>
   <v>       0.37500000       0.37500000       0.75000000 </v>
   <v>       0.62500000       0.25000000       0.62500000 </v>
   <v>       0.61842105       0.23684211       0.61842105 </v>
   <v>       0.61184211       0.22368421       0.61184211 </v>
   <v>       0.60526316       0.21052632       0.60526316 </v>
   <v>       0.59868421       0.19736842       0.59868421 </v>
   <v>       0.59210526       0.18421053       0.59210526 </v>
   <v>       0.58552632       0.17105263       0.58552632 </v>
   <v>       0.57894737       0.15789474       0.57894737 </v>
   <v>       0.57236842       0.14473684       0.57236842 </v>
   <v>       0.56578947       0.13157895       0.56578947 </v>
   <v>       0.55921053       0.11842105       0.55921053 </v>
   <v>       0.55263158       0.10526316       0.55263158 </v>
   <v>       0.54605263       0.09210526       0.54605263 </v>
   <v>       0.53947368       0.07894737       0.53947368 </v>
   <v>       0.53289474       0.06578947       0.53289474 </v>
   <v>       0.52631579       0.05263158       0.52631579 </v>
   <v>       0.51973684       0.03947368       0.51973684 </v>
   <v>       0.51315789       0.02631579       0.51315789 </v>
   <v>       0.50657895       0.01315789       0.50657895 </v>
   <v>       0.50000000       0.00000000       0.50000000 </v>
  </varray>
  <varray name="weights" >
   <v>       0.00500000 </v>
   <v>       0.00500000 </v>
   <v>       0.00500000 </v>
   <v>       0.00500000 </v>
   <v>       0.00500000 </v>
   <v>       0.00500000 </v>
   <v>       0.00500000 </v>
   <v>       0.00500000 </v>
   <v>       0.00500000 </v>
   <v>       0.00500000 </v>
   <v>       0.00500000 </v>
   <v>       0.00500000 </v>
   <v>       0.00500000 </v>
   <v>       0.00500000 </v>
   <v>       0.00500000 </v>
   <v>       0.00500000 </v>
   <v>       0.00500000 </v>
   <v>       0.00500000 </v>
   <v>       0.00500000 </v>
   <v>       0.00500000 </v>
   <v>       0.00500000 </v>
   <v>       0.00500000 </v>
   <v>       0.00500000 </v>
   <v>       0.00500000 </v>
   <v>       0.00500000 </v>
   <v>       0.00500000 </v>
   <v>       0.00500000 </v>
   <v>       0.00500000 </v>
   <v>       0.00500000 </v>
   <v>       0.00500000 </v>
   <v>       0.00500000 </v>
   <v>       0.00500000 </v>
   <v>       0.00500000 </v>
   <v>       0.00500000 </v>
   <v>       0.00500000 </v>
   <v>       0.00500000 </v>
   <v>       0.00500000 </v>
   <v>       0.00500000 </v>
   <v>       0.00500000 </v>
   <v>       0.00500000 </v>
   <v>       0.00500000 </v>
   <v>       0.00500000 </v>
   <v>       0.00500000 </v>
   <v>       0.00500000 </v>
   <v>       0.00500000 </v>
   <v>       0.00500000 </v>
   <v>       0.00500000 </v>
   <v>       0.00500000 </v>
   <v>       0.00500000 </v>
   <v>       0.00500000 </v>
   <v>       0.00500000 </v>
   <v>       0.00500000 </v>
   <v>       0.00500000 </v>
   <v>       0.00500000 </v>
   <v>       0.00500000 </v>
   <v>       0.00500000 </v>
   <v>       0.00500000 </v>
   <v>       0.00500000 </v>
   <v>       0.00500000 </v>
   <v>       0.00500000 </v>
   <v>       0.00500000 </v>
   <v>       0.00500000 </v>
   <v>       0.00500000 </v>
   <v>       0.00500000 </v>
   <v>       0.00500000 </v>
   <v>       0.00500000 </v>
   <v>       0.00500000 </v>
   <v>       0.00500000 </v>
   <v>       0.00500000 </v>
   <v>       0.00500000 </v>
   <v>       0.00500000 </v>
   <v>       0.00500000 </v>
   <v>       0.00500000 </v>
   <v>       0.00500000 </v>
   <v>       0.00500000 </v>
   <v>       0.00500000 </v>
   <v>       0.00500000 </v>
   <v>       0.00500000 </v>
   <v>       0.00500000 </v>
   <v>       0.00500000 </v>
   <v>       0.00500000 </v>
   <v>       0.00500000 </v>
   <v>       0.00500000 </v>
   <v>       0.00500000 </v>
   <v>       0.00500000 </v>
   <v>       0.00500000 </v>
   <v>       0.00500000 </v>
   <v>       0.00500000 </v>
   <v>       0.00500000 </v>
   <v>       0.00500000 </v>
   <v>       0.00500000 </v>
   <v>       0.00500000 </v>
   <v>       0.00500000 </v>
   <v>       0.00500000 </v>
   <v>       0.00500000 </v>
   <v>       0.00500000 </v>
   <v>       0.00500000 </v>
   <v>       0.00500000 </v>
   <v>       0.00500000 </v>
   <v>       0.00500000 </v>
   <v>       0.00500000 </v>
   <v>       0.00500000 </v>
   <v>       0.00500000 </v>
   <v>       0.00500000 </v>
   <v>       0.00500000 </v>
   <v>       0.00500000 </v>
   <v>       0.00500000 </v>
   <v>       0.00500000 </v>
   <v>       0.00500000 </v>
   <v>       0.00500000 </v>
   <v>       0.00500000 </v>
   <v>       0.00500000 </v>
   <v>       0.00500000 </v>
   <v>       0.00500000 </v>
   <v>       0.00500000 </v>
   <v>       0.00500000 </v>
   <v>       0.00500000 </v>
   <v>       0.00500000 </v>
   <v>       0.00500000 </v>
   <v>       0.00500000 </v>
   <v>       0.00500000 </v>
   <v>       0.00500000 </v>
   <v>       0.00500000 </v>
   <v>       0.00500000 </v>
   <v>       0.00500000 </v>
   <v>       0.00500000 </v>
   <v>       0.00500000 </v>
   <v>       0.00500000 </v>
   <v>       0.00500000 </v>
   <v>       0.00500000 </v>
   <v>       0.00500000 </v>
   <v>       0.00500000 </v>
   <v>       0.00500000 </v>
   <v>       0.00500000 </v>
   <v>       0.00500000 </v>
   <v>       0.00500000 </v>
   <v>       0.00500000 </v>
   <v>       0.00500000 </v>
   <v>       0.00500000 </v>
   <v>       0.00500000 </v>
   <v>       0.00500000 </v>
   <v>       0.00500000 </v>
   <v>       0.00500000 </v>
   <v>       0.00500000 </v>
   <v>       0.00500000 </v>
   <v>       0.00500000 </v>
   <v>       0.00500000 </v>
   <v>       0.00500000 </v>
   <v>       0.00500000 </v>
   <v>       0.00500000 </v>
   <v>       0.00500000 </v>
   <v>       0.00500000 </v>
   <v>       0.00500000 </v>
   <v>       0.00500000 </v>
   <v>       0.00500000 </v>
   <v>       0.00500000 </v>
   <v>       0.00500000 </v>
   <v>       0.00500000 </v>
   <v>       0.00500000 </v>
   <v>       0.00500000 </v>
   <v>       0.00500000 </v>
   <v>       0.00500000 </v>
   <v>       0.00500000 </v>
   <v>       0.00500000 </v>
   <v>       0.00500000 </v>
   <v>       0.00500000 </v>
   <v>       0.00500000 </v>
   <v>       0.00500000 </v>
   <v>       0.00500000 </v>
   <v>       0.00500000 </v>
   <v>       0.00500000 </v>
   <v>       0.00500000 </v>
   <v>       0.00500000 </v>
   <v>       0.00500000 </v>
   <v>       0.00500000 </v>
   <v>       0.00500000 </v>
   <v>       0.00500000 </v>
   <v>       0.00500000 </v>
   <v>       0.00500000 </v>
   <v>       0.00500000 </v>
   <v>       0.00500000 </v>
   <v>       0.00500000 </v>
   <v>       0.00500000 </v>
   <v>       0.00500000 </v>
   <v>       0.00500000 </v>
   <v>       0.00500000 </v>
   <v>       0.00500000 </v>
   <v>       0.00500000 </v>
   <v>       0.00500000 </v>
   <v>       0.00500000 </v>
   <v>       0.00500000 </v>
   <v>       0.00500000 </v>
   <v>       0.00500000 </v>
   <v>       0.00500000 </v>
   <v>       0.00500000 </v>
   <v>       0.00500000 </v>
   <v>       0.00500000 </v>
   <v>       0.00500000 </v>
   <v>       0.00500000 </v>
   <v>       0.00500000 </v>
  </varray>
 </kpoints>
 <parameters>
  <separator name="general" >
   <i type="string" name="SYSTEM">AgSiTa_pv.T0002.AB2C</i>
   <i type="logical" name="LCOMPAT"> F  </i>
  </separator>
  <separator name="electronic" >
   <i type="string" name="PREC">high</i>
   <i name="ENMAX">    349.78440000</i>
   <i name="ENAUG">    412.49600000</i>
   <i name="EDIFF">      0.00000100</i>
   <i type="int" name="IALGO">    38</i>
   <i type="int" name="IWAVPR">    10</i>
   <i type="int" name="NBANDS">    65</i>
   <i name="NELECT">     30.00000000</i>
   <separator name="electronic smearing" >
    <i type="int" name="ISMEAR">     0</i>
    <i name="SIGMA">      0.05000000</i>
   </separator>
   <separator name="electronic projectors" >
    <i type="logical" name="LREAL"> F  </i>
    <v name="ROPT">      0.00000000      0.00000000      0.00000000</v>
    <i type="int" name="LMAXPAW">  -100</i>
    <i type="int" name="LMAXMIX">     2</i>
   </separator>
   <separator name="electronic startup" >
    <i type="int" name="ISTART">     0</i>
    <i type="int" name="ICHARG">    11</i>
    <i type="int" name="INIWAV">     1</i>
   </separator>
   <separator name="electronic spin" >
    <i type="int" name="ISPIN">     1</i>
    <i type="logical" name="LNONCOLLINEAR"> F  </i>
    <v name="MAGMOM">      1.00000000      1.00000000      1.00000000      1.00000000</v>
    <i name="NUPDOWN">     -1.00000000</i>
    <i type="logical" name="LSORBIT"> F  </i>
    <v name="SAXIS">      0.00000000      0.00000000      1.00000000</v>
    <i type="logical" name="LSPIRAL"> F  </i>
    <v name="QSPIRAL">      0.00000000      0.00000000      0.00000000</v>
    <i type="logical" name="LZEROZ"> F  </i>
   </separator>
   <separator name="electronic exchange-correlation" >
    <i type="string" name="GGA">--</i>
    <i type="int" name="VOSKOWN">     0</i>
    <i type="logical" name="LASPH"> F  </i>
    <i type="logical" name="LMETAGGA"> F  </i>
    <i type="string" name="GGA2">--</i>
   </separator>
   <separator name="electronic convergence" >
    <i type="int" name="NELM">   120</i>
    <i type="int" name="NELMDL">    -5</i>
    <i type="int" name="NELMIN">     2</i>
    <i name="ENINI">    349.78440000</i>
    <separator name="electronic convergence detail" >
     <i type="logical" name="LDIAG"> T  </i>
     <i name="WEIMIN">      0.00000000</i>
     <i name="EBREAK">      0.00000000</i>
     <i name="DEPER">      0.30000000</i>
     <i type="int" name="NRMM">     4</i>
     <i name="TIME">      0.10000000</i>
    </separator>
   </separator>
   <separator name="electronic mixer" >
    <i name="AMIX">      0.40000000</i>
    <i name="BMIX">      1.00000000</i>
    <i name="AMIN">      0.10000000</i>
    <i name="AMIX_MAG">      1.60000000</i>
    <i name="BMIX_MAG">      1.00000000</i>
    <separator name="electronic mixer details" >
     <i type="int" name="IMIX">     4</i>
     <i type="int" name="MAXMIX">   -45</i>
     <i name="WC">    100.00000000</i>
     <i type="int" name="INIMIX">     1</i>
     <i type="int" name="MIXPRE">     1</i>
     <i type="int" name="MREMOVE">     5</i>
    </separator>
   </separator>
   <separator name="electronic dipolcorrection" >
    <i type="int" name="IDIPOL">     0</i>
    <i type="logical" name="LDIPOL"> F  </i>
    <v name="DIPOL">   -100.00000000</v>
    <i name="EFIELD">      0.00000000</i>
   </separator>
  </separator>
  <separator name="grids" >
   <i type="int" name="NGX">    28</i>
   <i type="int" name="NGY">    28</i>
   <i type="int" name="NGZ">    28</i>
   <i type="int" name="NGXF">    40</i>
   <i type="int" name="NGYF">    40</i>
   <i type="int" name="NGZF">    40</i>
   <i type="logical" name="ADDGRID"> F  </i>
  </separator>
  <separator name="ionic" >
   <i type="int" name="NSW">     0</i>
   <i type="int" name="IBRION">    -1</i>
   <i type="int" name="ISIF">     2</i>
   <i name="PSTRESS">      0.00000000</i>
   <i name="EDIFFG">      0.00001000</i>
   <i type="int" name="NFREE">     1</i>
   <i name="POTIM">      0.50000000</i>
   <i name="SMASS">     -3.00000000</i>
  </separator>
  <separator name="ionic md" >
   <i name="TEBEG">      0.00010000</i>
   <i name="TEEND">      0.00010000</i>
   <i type="int" name="NBLOCK">     1</i>
   <i type="int" name="KBLOCK">     1</i>
   <i type="int" name="NPACO">   256</i>
   <i name="APACO">     16.00000000</i>
  </separator>
  <separator name="symmetry" >
   <i type="int" name="ISYM">     2</i>
   <i name="SYMPREC">      0.00001000</i>
  </separator>
  <separator name="dos" >
   <i type="logical" name="LORBIT"> F  </i>
   <v name="RWIGS">     -1.00000000     -1.00000000     -1.00000000</v>
   <i type="int" name="NEDOS">   301</i>
   <i name="EMIN">     10.00000000</i>
   <i name="EMAX">    -10.00000000</i>
  </separator>
  <separator name="writing" >
   <i type="int" name="NWRITE">     2</i>
   <i type="logical" name="LWAVE"> F  </i>
   <i type="logical" name="LCHARG"> F  </i>
   <i type="logical" name="LPARD"> F  </i>
   <i type="logical" name="LVTOT"> F  </i>
   <i type="logical" name="LELF"> F  </i>
   <i type="logical" name="LOPTICS"> F  </i>
   <v name="STM">      0.00000000      0.00000000      0.00000000      0.00000000      0.00000000</v>
  </separator>
  <separator name="performance" >
   <i type="int" name="NPAR">     4</i>
   <i type="int" name="NSIM">     4</i>
   <i type="int" name="NBLK">    96</i>
   <i type="logical" name="LPLANE"> T  </i>
   <i type="logical" name="LCRITICAL_MEM"> F  </i>
   <i type="logical" name="LSCALAPACK"> F  </i>
   <i type="logical" name="LSCALU"> F  </i>
   <i type="logical" name="LASYNC"> F  </i>
  </separator>
  <separator name="miscellaneous" >
   <i type="int" name="IDIOT">     3</i>
   <i type="logical" name="LMUSIC"> F  </i>
   <v name="POMASS">    107.86800000     28.08500000    180.94800000</v>
   <i type="logical" name="LCORR"> T  </i>
  </separator>
  <i type="logical" name="LREAL_COMPAT"> F  </i>
  <i type="logical" name="GGA_COMPAT"> T  </i>
  <i type="logical" name="LBERRY"> F  </i>
  <i type="int" name="ICORELEVEL">     0</i>
  <i type="logical" name="LDAU"> F  </i>
  <i type="int" name="I_CONSTRAINED_M">     0</i>
 </parameters>
 <atominfo>
  <atoms>       4</atoms>
  <types>       3</types>
  <array name="atoms" >
   <dimension dim="1">ion</dimension>
   <field type="string">element</field>
   <field type="int">atomtype</field>
   <set>
    <rc><c>Ag</c><c>   1</c></rc>
    <rc><c>Si</c><c>   2</c></rc>
    <rc><c>Si</c><c>   2</c></rc>
    <rc><c>Ta</c><c>   3</c></rc>
   </set>
  </array>
  <array name="atomtypes" >
   <dimension dim="1">type</dimension>
   <field type="int">atomspertype</field>
   <field type="string">element</field>
   <field>mass</field>
   <field>valence</field>
   <field type="string">pseudopotential</field>
   <set>
    <rc><c>   1</c><c>Ag</c><c>    107.86800000</c><c>     11.00000000</c><c> PAW_PBE Ag 06Sep2000                   </c></rc>
    <rc><c>   2</c><c>Si</c><c>     28.08500000</c><c>      4.00000000</c><c> PAW_PBE Si 05Jan2001                   </c></rc>
    <rc><c>   1</c><c>Ta</c><c>    180.94800000</c><c>     11.00000000</c><c> PAW_PBE Ta_pv 07Sep2000                </c></rc>
   </set>
  </array>
 </atominfo>
 <structure name="initialpos" >
  <crystal>
   <varray name="basis" >
    <v>       0.00000000       3.20137862       3.20137862 </v>
    <v>       3.20137862       0.00000000       3.20137862 </v>
    <v>       3.20137862       3.20137862       0.00000000 </v>
   </varray>
   <i name="volume">     65.62073919</i>
   <varray name="rec_basis" >
    <v>      -0.15618271       0.15618271       0.15618271 </v>
    <v>       0.15618271      -0.15618271       0.15618271 </v>
    <v>       0.15618271       0.15618271      -0.15618271 </v>
   </varray>
  </crystal>
  <varray name="positions" >
   <v>       0.50000000       0.50000000       0.50000000 </v>
   <v>       0.00000000       0.00000000       0.00000000 </v>
   <v>       0.75000000       0.75000000       0.75000000 </v>
   <v>       0.25000000       0.25000000       0.25000000 </v>
  </varray>
 </structure>
 <calculation>
  <scstep>
   <time name="dav">    9.07    9.07</time>
   <time name="total">    9.10    9.10</time>
   <energy>
    <i name="alphaZ">    176.80311315</i>
    <i name="ewald">  -2034.12455272</i>
    <i name="hartreedc">   -434.20683955</i>
    <i name="XCdc">     -6.26974869</i>
    <i name="pawpsdc">   1593.52823282</i>
    <i name="pawaedc">  -1501.22585808</i>
    <i name="eentropy">     -0.00279763</i>
    <i name="bandstr">    129.33507701</i>
    <i name="atom">   2289.31469491</i>
    <i name="e_fr_energy">    213.15132123</i>
    <i name="e_wo_entrp">    213.15411886</i>
    <i name="e_0_energy">    213.15272005</i>
   </energy>
  </scstep>
  <scstep>
   <time name="dav">    9.83    9.83</time>
   <time name="total">    9.85    9.85</time>
   <energy>
    <i name="e_fr_energy">    -11.01473309</i>
    <i name="e_wo_entrp">    -11.01130314</i>
    <i name="e_0_energy">    -11.01301812</i>
   </energy>
  </scstep>
  <scstep>
   <time name="dav">   10.17   10.17</time>
   <time name="total">   10.19   10.19</time>
   <energy>
    <i name="e_fr_energy">    -23.60384419</i>
    <i name="e_wo_entrp">    -23.60104747</i>
    <i name="e_0_energy">    -23.60244583</i>
   </energy>
  </scstep>
  <scstep>
   <time name="dav">   10.07   10.07</time>
   <time name="total">   10.09   10.09</time>
   <energy>
    <i name="e_fr_energy">    -23.67576707</i>
    <i name="e_wo_entrp">    -23.67297943</i>
    <i name="e_0_energy">    -23.67437325</i>
   </energy>
  </scstep>
  <scstep>
   <time name="dav">   10.00   10.00</time>
   <time name="total">   10.02   10.02</time>
   <energy>
    <i name="e_fr_energy">    -23.67597533</i>
    <i name="e_wo_entrp">    -23.67318772</i>
    <i name="e_0_energy">    -23.67458152</i>
   </energy>
  </scstep>
  <scstep>
   <time name="dav">   10.11   10.11</time>
   <time name="total">   10.13   10.14</time>
   <energy>
    <i name="e_fr_energy">    -23.67597645</i>
    <i name="e_wo_entrp">    -23.67318884</i>
    <i name="e_0_energy">    -23.67458265</i>
   </energy>
  </scstep>
  <scstep>
   <time name="dav">    8.81    8.81</time>
   <time name="total">    8.83    8.86</time>
   <energy>
    <i name="alphaZ">    176.80311315</i>
    <i name="ewald">  -2034.12455272</i>
    <i name="hartreedc">   -434.20683955</i>
    <i name="XCdc">     -6.26974869</i>
    <i name="pawpsdc">   1593.52823282</i>
    <i name="pawaedc">  -1501.22585808</i>
    <i name="eentropy">     -0.00278762</i>
    <i name="bandstr">   -107.49223070</i>
    <i name="atom">   2289.31469491</i>
    <i name="e_fr_energy">    -23.67597646</i>
    <i name="e_wo_entrp">    -23.67318885</i>
    <i name="e_0_energy">    -23.67458265</i>
   </energy>
  </scstep>
  <structure>
   <crystal>
    <varray name="basis" >
     <v>       0.00000000       3.20137862       3.20137862 </v>
     <v>       3.20137862       0.00000000       3.20137862 </v>
     <v>       3.20137862       3.20137862       0.00000000 </v>
    </varray>
    <i name="volume">     65.62073919</i>
    <varray name="rec_basis" >
     <v>      -0.15618271       0.15618271       0.15618271 </v>
     <v>       0.15618271      -0.15618271       0.15618271 </v>
     <v>       0.15618271       0.15618271      -0.15618271 </v>
    </varray>
   </crystal>
   <varray name="positions" >
    <v>       0.50000000       0.50000000       0.50000000 </v>
    <v>       0.00000000       0.00000000       0.00000000 </v>
    <v>       0.75000000       0.75000000       0.75000000 </v>
    <v>       0.25000000       0.25000000       0.25000000 </v>
   </varray>
  </structure>
  <varray name="forces" >
   <v>       0.00000000       0.00000000       0.00000000 </v>
   <v>       0.00000000       0.00000000       0.00000000 </v>
   <v>       0.00000000       0.00000000       0.00000000 </v>
   <v>       0.00000000       0.00000000       0.00000000 </v>
  </varray>
  <varray name="stress" >
   <v>     -25.13565783       0.00000000       0.00000000 </v>
   <v>       0.00000000     -25.13565783       0.00000000 </v>
   <v>       0.00000000       0.00000000     -25.13565783 </v>
  </varray>
  <energy>
   <i name="e_fr_energy">    -23.67597646</i>
   <i name="e_wo_entrp">    -23.67458265</i>
   <i name="e_0_energy">     -0.00278762</i>
  </energy>
  <eigenvalues>
   <array>
    <dimension dim="1">band</dimension>
    <dimension dim="2">kpoint</dimension>
    <dimension dim="3">spin</dimension>
    <field>eigene</field>
    <field>occ</field>
    <set>
     <set comment="spin 1">
      <set comment="kpoint 1">
       <r> -27.3878  1.0000</r>
       <r> -27.3878  1.0000</r>
       <r> -27.3878  1.0000</r>
       <r>  -4.5953  1.0000</r>
       <r>   1.0596  1.0000</r>
       <r>   1.0596  1.0000</r>
       <r>   1.0596  1.0000</r>
       <r>   1.3201  1.0000</r>
       <r>   1.3201  1.0000</r>
       <r>   4.0991  1.0000</r>
       <r>   4.0991  1.0000</r>
       <r>   4.0991  1.0000</r>
       <r>   4.7011  1.0000</r>
       <r>   6.9518  1.0000</r>
       <r>   6.9518  1.0000</r>
       <r>   6.9518  1.0000</r>
       <r>   7.4846  0.0000</r>
       <r>   7.4846  0.0000</r>
       <r>   8.4967  0.0000</r>
       <r>  12.1761  0.0000</r>
       <r>  12.1761  0.0000</r>
       <r>  12.1761  0.0000</r>
       <r>  13.8492  0.0000</r>
       <r>  13.8492  0.0000</r>
       <r>  13.8492  0.0000</r>
       <r>  17.3374  0.0000</r>
       <r>  17.3374  0.0000</r>
       <r>  18.4562  0.0000</r>
       <r>  19.4085  0.0000</r>
       <r>  23.1371  0.0000</r>
       <r>  23.1371  0.0000</r>
       <r>  23.1371  0.0000</r>
       <r>  24.0856  0.0000</r>
       <r>  24.0856  0.0000</r>
       <r>  24.6499  0.0000</r>
       <r>  24.6499  0.0000</r>
       <r>  24.6499  0.0000</r>
       <r>  25.0614  0.0000</r>
       <r>  25.0614  0.0000</r>
       <r>  25.0614  0.0000</r>
       <r>  30.4925  0.0000</r>
       <r>  30.4925  0.0000</r>
       <r>  30.4925  0.0000</r>
       <r>  33.3049  0.0000</r>
       <r>  33.3049  0.0000</r>
       <r>  33.3049  0.0000</r>
       <r>  34.1286  0.0000</r>
       <r>  35.5227  0.0000</r>
       <r>  35.5877  0.0000</r>
       <r>  35.5877  0.0000</r>
       <r>  35.5877  0.0000</r>
       <r>  35.6870  0.0000</r>
       <r>  35.6870  0.0000</r>
       <r>  35.6870  0.0000</r>
       <r>  35.7556  0.0000</r>
       <r>  35.7556  0.0000</r>
       <r>  38.1614  0.0000</r>
       <r>  38.1614  0.0000</r>
       <r>  38.1614  0.0000</r>
       <r>  39.1797  0.0000</r>
       <r>  39.1797  0.0000</r>
       <r>  39.1797  0.0000</r>
       <r>  40.2404  0.0000</r>
       <r>  40.2404  0.0000</r>
       <r>  41.7760  0.0000</r>
       <r>  46.7286  0.0000</r>
       <r>  46.7287  0.0000</r>
       <r>  46.7335  0.0000</r>
      </set>
      <set comment="kpoint 2">
       <r> -27.3879  1.0000</r>
       <r> -27.3879  1.0000</r>
       <r> -27.3879  1.0000</r>
       <r>  -4.5847  1.0000</r>
       <r>   1.0410  1.0000</r>
       <r>   1.0616  1.0000</r>
       <r>   1.0616  1.0000</r>
       <r>   1.3224  1.0000</r>
       <r>   1.3231  1.0000</r>
       <r>   4.0169  1.0000</r>
       <r>   4.0866  1.0000</r>
       <r>   4.0866  1.0000</r>
       <r>   4.7730  1.0000</r>
       <r>   6.8265  1.0000</r>
       <r>   6.9780  1.0000</r>
       <r>   6.9780  1.0000</r>
       <r>   7.4841  0.0000</r>
       <r>   7.6141  0.0000</r>
       <r>   8.5559  0.0000</r>
       <r>  12.0893  0.0000</r>
       <r>  12.0893  0.0000</r>
       <r>  12.1187  0.0000</r>
       <r>  13.8187  0.0000</r>
       <r>  13.9427  0.0000</r>
       <r>  13.9427  0.0000</r>
       <r>  17.3305  0.0000</r>
       <r>  17.3801  0.0000</r>
       <r>  18.5158  0.0000</r>
       <r>  19.4091  0.0000</r>
       <r>  22.9416  0.0000</r>
       <r>  23.0313  0.0000</r>
       <r>  23.0313  0.0000</r>
       <r>  23.7549  0.0000</r>
       <r>  24.2502  0.0000</r>
       <r>  24.5736  0.0000</r>
       <r>  24.5736  0.0000</r>
       <r>  25.0024  0.0000</r>
       <r>  25.0620  0.0000</r>
       <r>  25.2540  0.0000</r>
       <r>  25.2540  0.0000</r>
       <r>  30.4247  0.0000</r>
       <r>  30.4247  0.0000</r>
       <r>  30.4841  0.0000</r>
       <r>  33.2162  0.0000</r>
       <r>  33.2692  0.0000</r>
       <r>  33.2692  0.0000</r>
       <r>  34.1686  0.0000</r>
       <r>  35.1303  0.0000</r>
       <r>  35.1304  0.0000</r>
       <r>  35.4838  0.0000</r>
       <r>  35.5445  0.0000</r>
       <r>  35.6124  0.0000</r>
       <r>  35.6765  0.0000</r>
       <r>  35.9746  0.0000</r>
       <r>  36.2087  0.0000</r>
       <r>  36.2087  0.0000</r>
       <r>  38.0592  0.0000</r>
       <r>  38.0592  0.0000</r>
       <r>  38.1828  0.0000</r>
       <r>  39.2215  0.0000</r>
       <r>  39.3996  0.0000</r>
       <r>  39.3996  0.0000</r>
       <r>  40.1747  0.0000</r>
       <r>  40.2438  0.0000</r>
       <r>  41.8229  0.0000</r>
       <r>  46.6141  0.0000</r>
       <r>  46.6164  0.0000</r>
       <r>  46.7530  0.0000</r>
      </set>
      <set comment="kpoint 3">
       <r> -27.3882  1.0000</r>
       <r> -27.3879  1.0000</r>
       <r> -27.3879  1.0000</r>
       <r>  -4.5527  1.0000</r>
       <r>   0.9881  1.0000</r>
       <r>   1.0675  1.0000</r>
       <r>   1.0675  1.0000</r>
       <r>   1.3287  1.0000</r>
       <r>   1.3293  1.0000</r>
       <r>   3.8455  1.0000</r>
       <r>   4.0509  1.0000</r>
       <r>   4.0509  1.0000</r>
       <r>   4.9034  1.0000</r>
       <r>   6.6237  1.0000</r>
       <r>   7.0546  1.0000</r>
       <r>   7.0546  1.0000</r>
       <r>   7.4826  0.0000</r>
       <r>   7.8326  0.0000</r>
       <r>   8.7393  0.0000</r>
       <r>  11.8724  0.0000</r>
       <r>  11.8724  0.0000</r>
       <r>  11.9490  0.0000</r>
       <r>  13.7468  0.0000</r>
       <r>  14.1806  0.0000</r>
       <r>  14.1806  0.0000</r>
       <r>  17.3099  0.0000</r>
       <r>  17.4730  0.0000</r>
       <r>  18.7071  0.0000</r>
       <r>  19.4115  0.0000</r>
       <r>  22.5436  0.0000</r>
       <r>  22.7468  0.0000</r>
       <r>  22.7468  0.0000</r>
       <r>  23.2653  0.0000</r>
       <r>  24.5220  0.0000</r>
       <r>  24.5220  0.0000</r>
       <r>  24.5587  0.0000</r>
       <r>  25.0615  0.0000</r>
       <r>  25.5558  0.0000</r>
       <r>  25.6213  0.0000</r>
       <r>  25.6213  0.0000</r>
       <r>  30.2353  0.0000</r>
       <r>  30.2353  0.0000</r>
       <r>  30.4596  0.0000</r>
       <r>  32.9660  0.0000</r>
       <r>  33.1106  0.0000</r>
       <r>  33.1106  0.0000</r>
       <r>  34.2850  0.0000</r>
       <r>  34.8537  0.0000</r>
       <r>  34.8537  0.0000</r>
       <r>  35.2754  0.0000</r>
       <r>  35.3962  0.0000</r>
       <r>  35.6703  0.0000</r>
       <r>  35.6802  0.0000</r>
       <r>  36.2454  0.0000</r>
       <r>  36.5633  0.0000</r>
       <r>  36.5633  0.0000</r>
       <r>  38.1042  0.0000</r>
       <r>  38.1042  0.0000</r>
       <r>  38.1834  0.0000</r>
       <r>  39.3442  0.0000</r>
       <r>  39.8632  0.0000</r>
       <r>  39.8632  0.0000</r>
       <r>  40.0283  0.0000</r>
       <r>  40.2537  0.0000</r>
       <r>  41.9623  0.0000</r>
       <r>  46.3011  0.0000</r>
       <r>  46.3011  0.0000</r>
       <r>  46.8099  0.0000</r>
      </set>
      <set comment="kpoint 4">
       <r> -27.3886  1.0000</r>
       <r> -27.3880  1.0000</r>
       <r> -27.3880  1.0000</r>
       <r>  -4.4998  1.0000</r>
       <r>   0.9072  1.0000</r>
       <r>   1.0774  1.0000</r>
       <r>   1.0774  1.0000</r>
       <r>   1.3309  1.0000</r>
       <r>   1.3407  1.0000</r>
       <r>   3.6598  1.0000</r>
       <r>   3.9963  1.0000</r>
       <r>   3.9963  1.0000</r>
       <r>   4.9892  1.0000</r>
       <r>   6.4773  1.0000</r>
       <r>   7.1762  0.9382</r>
       <r>   7.1762  0.9381</r>
       <r>   7.4801  0.0000</r>
       <r>   8.0366  0.0000</r>
       <r>   9.0409  0.0000</r>
       <r>  11.5929  0.0000</r>
       <r>  11.5929  0.0000</r>
       <r>  11.6803  0.0000</r>
       <r>  13.6700  0.0000</r>
       <r>  14.4965  0.0000</r>
       <r>  14.4965  0.0000</r>
       <r>  17.2757  0.0000</r>
       <r>  17.5550  0.0000</r>
       <r>  19.0356  0.0000</r>
       <r>  19.4213  0.0000</r>
       <r>  22.0937  0.0000</r>
       <r>  22.3517  0.0000</r>
       <r>  22.3517  0.0000</r>
       <r>  22.7837  0.0000</r>
       <r>  24.5526  0.0000</r>
       <r>  24.5526  0.0000</r>
       <r>  24.8635  0.0000</r>
       <r>  25.0632  0.0000</r>
       <r>  26.0304  0.0000</r>
       <r>  26.0304  0.0000</r>
       <r>  26.1452  0.0000</r>
       <r>  29.9566  0.0000</r>
       <r>  29.9566  0.0000</r>
       <r>  30.4208  0.0000</r>
       <r>  32.5866  0.0000</r>
       <r>  32.7988  0.0000</r>
       <r>  32.7988  0.0000</r>
       <r>  34.4746  0.0000</r>
       <r>  34.8468  0.0000</r>
       <r>  34.8468  0.0000</r>
       <r>  35.0735  0.0000</r>
       <r>  35.0877  0.0000</r>
       <r>  35.7685  0.0000</r>
       <r>  35.8153  0.0000</r>
       <r>  36.4861  0.0000</r>
       <r>  36.4861  0.0000</r>
       <r>  36.5376  0.0000</r>
       <r>  38.0411  0.0000</r>
       <r>  38.6359  0.0000</r>
       <r>  38.6359  0.0000</r>
       <r>  39.5040  0.0000</r>
       <r>  39.9494  0.0000</r>
       <r>  40.2717  0.0000</r>
       <r>  40.4118  0.0000</r>
       <r>  40.4118  0.0000</r>
       <r>  42.1909  0.0000</r>
       <r>  45.8478  0.0000</r>
       <r>  45.8478  0.0000</r>
       <r>  46.8731  0.0000</r>
      </set>
      <set comment="kpoint 5">
       <r> -27.3891  1.0000</r>
       <r> -27.3882  1.0000</r>
       <r> -27.3882  1.0000</r>
       <r>  -4.4261  1.0000</r>
       <r>   0.8025  1.0000</r>
       <r>   1.0907  1.0000</r>
       <r>   1.0908  1.0000</r>
       <r>   1.3255  1.0000</r>
       <r>   1.3563  1.0000</r>
       <r>   3.4872  1.0000</r>
       <r>   3.9286  1.0000</r>
       <r>   3.9286  1.0000</r>
       <r>   4.9753  1.0000</r>
       <r>   6.4344  1.0000</r>
       <r>   7.3352  0.0016</r>
       <r>   7.3352  0.0016</r>
       <r>   7.4768  0.0000</r>
       <r>   8.2326  0.0000</r>
       <r>   9.4259  0.0000</r>
       <r>  11.2923  0.0000</r>
       <r>  11.2923  0.0000</r>
       <r>  11.3417  0.0000</r>
       <r>  13.6096  0.0000</r>
       <r>  14.8509  0.0000</r>
       <r>  14.8509  0.0000</r>
       <r>  17.2280  0.0000</r>
       <r>  17.6019  0.0000</r>
       <r>  19.3530  0.0000</r>
       <r>  19.5560  0.0000</r>
       <r>  21.6447  0.0000</r>
       <r>  21.8976  0.0000</r>
       <r>  21.8976  0.0000</r>
       <r>  22.3263  0.0000</r>
       <r>  24.6438  0.0000</r>
       <r>  24.6438  0.0000</r>
       <r>  25.0561  0.0000</r>
       <r>  25.1266  0.0000</r>
       <r>  26.4300  0.0000</r>
       <r>  26.4300  0.0000</r>
       <r>  26.7511  0.0000</r>
       <r>  29.6273  0.0000</r>
       <r>  29.6273  0.0000</r>
       <r>  30.3683  0.0000</r>
       <r>  32.1126  0.0000</r>
       <r>  32.4251  0.0000</r>
       <r>  32.4251  0.0000</r>
       <r>  34.6886  0.0000</r>
       <r>  34.7485  0.0000</r>
       <r>  34.9221  0.0000</r>
       <r>  34.9816  0.0000</r>
       <r>  34.9816  0.0000</r>
       <r>  35.9059  0.0000</r>
       <r>  35.9829  0.0000</r>
       <r>  36.2468  0.0000</r>
       <r>  36.2468  0.0000</r>
       <r>  36.8497  0.0000</r>
       <r>  37.6914  0.0000</r>
       <r>  39.4390  0.0000</r>
       <r>  39.4390  0.0000</r>
       <r>  39.6340  0.0000</r>
       <r>  40.0708  0.0000</r>
       <r>  40.2989  0.0000</r>
       <r>  41.0019  0.0000</r>
       <r>  41.0019  0.0000</r>
       <r>  42.5034  0.0000</r>
       <r>  45.3028  0.0000</r>
       <r>  45.3028  0.0000</r>
       <r>  46.9224  0.0000</r>
      </set>
      <set comment="kpoint 6">
       <r> -27.3898  1.0000</r>
       <r> -27.3883  1.0000</r>
       <r> -27.3883  1.0000</r>
       <r>  -4.3324  1.0000</r>
       <r>   0.6772  1.0000</r>
       <r>   1.1074  1.0000</r>
       <r>   1.1074  1.0000</r>
       <r>   1.3109  1.0000</r>
       <r>   1.3757  1.0000</r>
       <r>   3.3386  1.0000</r>
       <r>   3.8534  1.0000</r>
       <r>   3.8534  1.0000</r>
       <r>   4.8623  1.0000</r>
       <r>   6.4838  1.0000</r>
       <r>   7.4726  0.0000</r>
       <r>   7.5221  0.0000</r>
       <r>   7.5221  0.0000</r>
       <r>   8.4438  0.0000</r>
       <r>   9.8498  0.0000</r>
       <r>  10.9778  0.0000</r>
       <r>  10.9941  0.0000</r>
       <r>  10.9941  0.0000</r>
       <r>  13.5702  0.0000</r>
       <r>  15.2246  0.0000</r>
       <r>  15.2246  0.0000</r>
       <r>  17.1671  0.0000</r>
       <r>  17.6205  0.0000</r>
       <r>  19.3889  0.0000</r>
       <r>  20.0066  0.0000</r>
       <r>  21.2566  0.0000</r>
       <r>  21.4118  0.0000</r>
       <r>  21.4118  0.0000</r>
       <r>  21.8987  0.0000</r>
       <r>  24.7776  0.0000</r>
       <r>  24.7776  0.0000</r>
       <r>  25.0463  0.0000</r>
       <r>  25.3261  0.0000</r>
       <r>  26.7738  0.0000</r>
       <r>  26.7738  0.0000</r>
       <r>  27.3649  0.0000</r>
       <r>  29.2980  0.0000</r>
       <r>  29.2980  0.0000</r>
       <r>  30.2977  0.0000</r>
       <r>  31.5812  0.0000</r>
       <r>  32.0812  0.0000</r>
       <r>  32.0812  0.0000</r>
       <r>  34.3015  0.0000</r>
       <r>  34.7800  0.0000</r>
       <r>  35.0515  0.0000</r>
       <r>  35.0515  0.0000</r>
       <r>  35.0664  0.0000</r>
       <r>  36.0822  0.0000</r>
       <r>  36.1327  0.0000</r>
       <r>  36.1327  0.0000</r>
       <r>  36.1670  0.0000</r>
       <r>  37.1811  0.0000</r>
       <r>  37.1921  0.0000</r>
       <r>  39.8001  0.0000</r>
       <r>  40.3031  0.0000</r>
       <r>  40.3333  0.0000</r>
       <r>  40.3333  0.0000</r>
       <r>  40.3370  0.0000</r>
       <r>  41.6208  0.0000</r>
       <r>  41.6208  0.0000</r>
       <r>  42.8939  0.0000</r>
       <r>  44.7069  0.0000</r>
       <r>  44.7069  0.0000</r>
       <r>  46.9291  0.0000</r>
      </set>
      <set comment="kpoint 7">
       <r> -27.3905  1.0000</r>
       <r> -27.3885  1.0000</r>
       <r> -27.3885  1.0000</r>
       <r>  -4.2193  1.0000</r>
       <r>   0.5343  1.0000</r>
       <r>   1.1262  1.0000</r>
       <r>   1.1262  1.0000</r>
       <r>   1.2857  1.0000</r>
       <r>   1.3984  1.0000</r>
       <r>   3.2181  1.0000</r>
       <r>   3.7758  1.0000</r>
       <r>   3.7758  1.0000</r>
       <r>   4.6886  1.0000</r>
       <r>   6.5766  1.0000</r>
       <r>   7.4675  0.0000</r>
       <r>   7.7253  0.0000</r>
       <r>   7.7253  0.0000</r>
       <r>   8.6793  0.0000</r>
       <r>  10.2031  0.0000</r>
       <r>  10.7098  0.0000</r>
       <r>  10.7146  0.0000</r>
       <r>  10.7146  0.0000</r>
       <r>  13.5488  0.0000</r>
       <r>  15.6068  0.0000</r>
       <r>  15.6068  0.0000</r>
       <r>  17.0930  0.0000</r>
       <r>  17.6217  0.0000</r>
       <r>  19.3939  0.0000</r>
       <r>  20.2660  0.0000</r>
       <r>  20.9067  0.0000</r>
       <r>  20.9067  0.0000</r>
       <r>  21.1627  0.0000</r>
       <r>  21.5031  0.0000</r>
       <r>  24.9397  0.0000</r>
       <r>  24.9397  0.0000</r>
       <r>  25.0179  0.0000</r>
       <r>  25.4613  0.0000</r>
       <r>  26.9895  0.0000</r>
       <r>  26.9895  0.0000</r>
       <r>  27.9790  0.0000</r>
       <r>  29.0333  0.0000</r>
       <r>  29.0333  0.0000</r>
       <r>  30.1854  0.0000</r>
       <r>  31.0424  0.0000</r>
       <r>  31.8180  0.0000</r>
       <r>  31.8180  0.0000</r>
       <r>  33.8868  0.0000</r>
       <r>  34.6620  0.0000</r>
       <r>  34.8967  0.0000</r>
       <r>  34.8967  0.0000</r>
       <r>  35.4478  0.0000</r>
       <r>  36.2972  0.0000</r>
       <r>  36.2984  0.0000</r>
       <r>  36.3059  0.0000</r>
       <r>  36.3059  0.0000</r>
       <r>  36.6979  0.0000</r>
       <r>  37.5304  0.0000</r>
       <r>  40.0335  0.0000</r>
       <r>  40.3873  0.0000</r>
       <r>  40.5406  0.0000</r>
       <r>  41.2364  0.0000</r>
       <r>  41.2364  0.0000</r>
       <r>  42.2551  0.0000</r>
       <r>  42.2551  0.0000</r>
       <r>  43.3496  0.0000</r>
       <r>  44.1137  0.0000</r>
       <r>  44.1137  0.0000</r>
       <r>  46.8364  0.0000</r>
      </set>
      <set comment="kpoint 8">
       <r> -27.3914  1.0000</r>
       <r> -27.3887  1.0000</r>
       <r> -27.3887  1.0000</r>
       <r>  -4.0878  1.0000</r>
       <r>   0.3778  1.0000</r>
       <r>   1.1474  1.0000</r>
       <r>   1.1474  1.0000</r>
       <r>   1.2509  1.0000</r>
       <r>   1.4240  1.0000</r>
       <r>   3.1263  1.0000</r>
       <r>   3.7000  1.0000</r>
       <r>   3.7000  1.0000</r>
       <r>   4.4878  1.0000</r>
       <r>   6.6708  1.0000</r>
       <r>   7.4620  0.0000</r>
       <r>   7.9293  0.0000</r>
       <r>   7.9293  0.0000</r>
       <r>   8.9277  0.0000</r>
       <r>  10.0965  0.0000</r>
       <r>  10.4718  0.0000</r>
       <r>  10.4718  0.0000</r>
       <r>  10.9510  0.0000</r>
       <r>  13.5431  0.0000</r>
       <r>  15.9922  0.0000</r>
       <r>  15.9922  0.0000</r>
       <r>  17.0074  0.0000</r>
       <r>  17.6151  0.0000</r>
       <r>  19.3951  0.0000</r>
       <r>  20.0626  0.0000</r>
       <r>  20.3923  0.0000</r>
       <r>  20.3923  0.0000</r>
       <r>  21.1430  0.0000</r>
       <r>  21.5948  0.0000</r>
       <r>  24.9638  0.0000</r>
       <r>  25.1171  0.0000</r>
       <r>  25.1171  0.0000</r>
       <r>  25.5351  0.0000</r>
       <r>  26.9979  0.0000</r>
       <r>  26.9979  0.0000</r>
       <r>  28.5855  0.0000</r>
       <r>  28.9206  0.0000</r>
       <r>  28.9206  0.0000</r>
       <r>  29.9557  0.0000</r>
       <r>  30.5959  0.0000</r>
       <r>  31.6689  0.0000</r>
       <r>  31.6689  0.0000</r>
       <r>  33.4618  0.0000</r>
       <r>  34.5723  0.0000</r>
       <r>  34.6133  0.0000</r>
       <r>  34.6133  0.0000</r>
       <r>  35.8474  0.0000</r>
       <r>  35.9269  0.0000</r>
       <r>  36.5512  0.0000</r>
       <r>  36.6692  0.0000</r>
       <r>  36.6692  0.0000</r>
       <r>  36.7504  0.0000</r>
       <r>  37.8964  0.0000</r>
       <r>  40.3189  0.0000</r>
       <r>  40.4570  0.0000</r>
       <r>  40.7640  0.0000</r>
       <r>  42.0408  0.0000</r>
       <r>  42.0408  0.0000</r>
       <r>  42.7770  0.0000</r>
       <r>  42.7770  0.0000</r>
       <r>  43.7518  0.0000</r>
       <r>  43.7518  0.0000</r>
       <r>  43.8519  0.0000</r>
       <r>  46.6217  0.0000</r>
      </set>
      <set comment="kpoint 9">
       <r> -27.3923  1.0000</r>
       <r> -27.3890  1.0000</r>
       <r> -27.3890  1.0000</r>
       <r>  -3.9390  1.0000</r>
       <r>   0.2113  1.0000</r>
       <r>   1.1697  1.0000</r>
       <r>   1.1697  1.0000</r>
       <r>   1.2084  1.0000</r>
       <r>   1.4517  1.0000</r>
       <r>   3.0607  1.0000</r>
       <r>   3.6291  1.0000</r>
       <r>   3.6291  1.0000</r>
       <r>   4.2774  1.0000</r>
       <r>   6.7417  1.0000</r>
       <r>   7.4559  0.0000</r>
       <r>   8.1109  0.0000</r>
       <r>   8.1109  0.0000</r>
       <r>   9.1282  0.0000</r>
       <r>   9.8864  0.0000</r>
       <r>  10.2894  0.0000</r>
       <r>  10.2894  0.0000</r>
       <r>  11.4082  0.0000</r>
       <r>  13.5518  0.0000</r>
       <r>  16.3742  0.0000</r>
       <r>  16.3742  0.0000</r>
       <r>  16.9107  0.0000</r>
       <r>  17.6086  0.0000</r>
       <r>  19.3939  0.0000</r>
       <r>  19.7423  0.0000</r>
       <r>  19.8730  0.0000</r>
       <r>  19.8730  0.0000</r>
       <r>  20.8185  0.0000</r>
       <r>  22.1954  0.0000</r>
       <r>  24.8700  0.0000</r>
       <r>  25.2887  0.0000</r>
       <r>  25.2887  0.0000</r>
       <r>  25.5513  0.0000</r>
       <r>  26.7997  0.0000</r>
       <r>  26.7997  0.0000</r>
       <r>  28.9523  0.0000</r>
       <r>  28.9523  0.0000</r>
       <r>  29.1743  0.0000</r>
       <r>  29.5282  0.0000</r>
       <r>  30.3357  0.0000</r>
       <r>  31.6586  0.0000</r>
       <r>  31.6586  0.0000</r>
       <r>  33.0400  0.0000</r>
       <r>  34.3064  0.0000</r>
       <r>  34.3064  0.0000</r>
       <r>  34.5116  0.0000</r>
       <r>  35.3745  0.0000</r>
       <r>  36.2342  0.0000</r>
       <r>  36.8443  0.0000</r>
       <r>  37.0802  0.0000</r>
       <r>  37.1126  0.0000</r>
       <r>  37.1126  0.0000</r>
       <r>  38.2762  0.0000</r>
       <r>  40.5490  0.0000</r>
       <r>  40.6172  0.0000</r>
       <r>  40.9896  0.0000</r>
       <r>  42.2159  0.0000</r>
       <r>  42.2159  0.0000</r>
       <r>  43.0759  0.0000</r>
       <r>  43.0759  0.0000</r>
       <r>  44.2538  0.0000</r>
       <r>  44.2538  0.0000</r>
       <r>  44.3651  0.0000</r>
       <r>  46.3079  0.0000</r>
      </set>
      <set comment="kpoint 10">
       <r> -27.3933  1.0000</r>
       <r> -27.3892  1.0000</r>
       <r> -27.3892  1.0000</r>
       <r>  -3.7744  1.0000</r>
       <r>   0.0386  1.0000</r>
       <r>   1.1613  1.0000</r>
       <r>   1.1926  1.0000</r>
       <r>   1.1926  1.0000</r>
       <r>   1.4810  1.0000</r>
       <r>   3.0173  1.0000</r>
       <r>   3.5654  1.0000</r>
       <r>   3.5654  1.0000</r>
       <r>   4.0647  1.0000</r>
       <r>   6.7746  1.0000</r>
       <r>   7.4494  0.0000</r>
       <r>   8.2381  0.0000</r>
       <r>   8.2381  0.0000</r>
       <r>   9.1349  0.0000</r>
       <r>   9.9171  0.0000</r>
       <r>  10.2004  0.0000</r>
       <r>  10.2004  0.0000</r>
       <r>  11.8759  0.0000</r>
       <r>  13.5776  0.0000</r>
       <r>  16.7453  0.0000</r>
       <r>  16.7453  0.0000</r>
       <r>  16.8060  0.0000</r>
       <r>  17.6117  0.0000</r>
       <r>  19.3588  0.0000</r>
       <r>  19.3588  0.0000</r>
       <r>  19.3744  0.0000</r>
       <r>  19.4604  0.0000</r>
       <r>  20.5304  0.0000</r>
       <r>  22.8156  0.0000</r>
       <r>  24.7229  0.0000</r>
       <r>  25.4132  0.0000</r>
       <r>  25.4132  0.0000</r>
       <r>  25.5163  0.0000</r>
       <r>  26.5120  0.0000</r>
       <r>  26.5120  0.0000</r>
       <r>  29.0162  0.0000</r>
       <r>  29.0457  0.0000</r>
       <r>  29.0457  0.0000</r>
       <r>  29.7335  0.0000</r>
       <r>  30.1650  0.0000</r>
       <r>  31.7957  0.0000</r>
       <r>  31.7957  0.0000</r>
       <r>  32.6469  0.0000</r>
       <r>  34.0204  0.0000</r>
       <r>  34.0204  0.0000</r>
       <r>  34.4868  0.0000</r>
       <r>  34.8707  0.0000</r>
       <r>  36.5324  0.0000</r>
       <r>  37.1770  0.0000</r>
       <r>  37.5302  0.0000</r>
       <r>  37.5946  0.0000</r>
       <r>  37.5946  0.0000</r>
       <r>  38.6667  0.0000</r>
       <r>  40.6721  0.0000</r>
       <r>  40.8722  0.0000</r>
       <r>  41.2637  0.0000</r>
       <r>  41.6615  0.0000</r>
       <r>  41.6615  0.0000</r>
       <r>  43.6685  0.0000</r>
       <r>  43.6685  0.0000</r>
       <r>  44.7947  0.0000</r>
       <r>  45.1949  0.0000</r>
       <r>  45.1956  0.0000</r>
       <r>  46.0401  0.0000</r>
      </set>
      <set comment="kpoint 11">
       <r> -27.3942  1.0000</r>
       <r> -27.3895  1.0000</r>
       <r> -27.3895  1.0000</r>
       <r>  -3.5957  1.0000</r>
       <r>  -0.1369  1.0000</r>
       <r>   1.1136  1.0000</r>
       <r>   1.2153  1.0000</r>
       <r>   1.2153  1.0000</r>
       <r>   1.5111  1.0000</r>
       <r>   2.9905  1.0000</r>
       <r>   3.5104  1.0000</r>
       <r>   3.5104  1.0000</r>
       <r>   3.8528  1.0000</r>
       <r>   6.7612  1.0000</r>
       <r>   7.4428  0.0000</r>
       <r>   8.2811  0.0000</r>
       <r>   8.2811  0.0000</r>
       <r>   9.0001  0.0000</r>
       <r>  10.1572  0.0000</r>
       <r>  10.2351  0.0000</r>
       <r>  10.2351  0.0000</r>
       <r>  12.3161  0.0000</r>
       <r>  13.6253  0.0000</r>
       <r>  16.6954  0.0000</r>
       <r>  17.0852  0.0000</r>
       <r>  17.0852  0.0000</r>
       <r>  17.6386  0.0000</r>
       <r>  18.8696  0.0000</r>
       <r>  18.8696  0.0000</r>
       <r>  19.1810  0.0000</r>
       <r>  19.4061  0.0000</r>
       <r>  20.2781  0.0000</r>
       <r>  23.4086  0.0000</r>
       <r>  24.5063  0.0000</r>
       <r>  25.3961  0.0000</r>
       <r>  25.3961  0.0000</r>
       <r>  25.4374  0.0000</r>
       <r>  26.2908  0.0000</r>
       <r>  26.2908  0.0000</r>
       <r>  28.5161  0.0000</r>
       <r>  29.1475  0.0000</r>
       <r>  29.1475  0.0000</r>
       <r>  30.0090  0.0000</r>
       <r>  30.2493  0.0000</r>
       <r>  32.0548  0.0000</r>
       <r>  32.0548  0.0000</r>
       <r>  32.3162  0.0000</r>
       <r>  33.7831  0.0000</r>
       <r>  33.7831  0.0000</r>
       <r>  34.4269  0.0000</r>
       <r>  34.5008  0.0000</r>
       <r>  36.7375  0.0000</r>
       <r>  37.5500  0.0000</r>
       <r>  38.0612  0.0000</r>
       <r>  38.0919  0.0000</r>
       <r>  38.0919  0.0000</r>
       <r>  39.0620  0.0000</r>
       <r>  40.8354  0.0000</r>
       <r>  41.0014  0.0000</r>
       <r>  41.0014  0.0000</r>
       <r>  41.0687  0.0000</r>
       <r>  41.6011  0.0000</r>
       <r>  44.2442  0.0000</r>
       <r>  44.2442  0.0000</r>
       <r>  44.8857  0.0000</r>
       <r>  46.1175  0.0000</r>
       <r>  46.2315  0.0000</r>
       <r>  46.2920  0.0000</r>
      </set>
      <set comment="kpoint 12">
       <r> -27.3952  1.0000</r>
       <r> -27.3897  1.0000</r>
       <r> -27.3897  1.0000</r>
       <r>  -3.4048  1.0000</r>
       <r>  -0.3128  1.0000</r>
       <r>   1.0697  1.0000</r>
       <r>   1.2368  1.0000</r>
       <r>   1.2368  1.0000</r>
       <r>   1.5410  1.0000</r>
       <r>   2.9728  1.0000</r>
       <r>   3.4648  1.0000</r>
       <r>   3.4648  1.0000</r>
       <r>   3.6443  1.0000</r>
       <r>   6.6996  1.0000</r>
       <r>   7.4362  0.0000</r>
       <r>   8.2375  0.0000</r>
       <r>   8.2375  0.0000</r>
       <r>   8.8806  0.0000</r>
       <r>  10.3968  0.0000</r>
       <r>  10.3968  0.0000</r>
       <r>  10.4453  0.0000</r>
       <r>  12.7031  0.0000</r>
       <r>  13.7019  0.0000</r>
       <r>  16.5821  0.0000</r>
       <r>  17.3218  0.0000</r>
       <r>  17.3218  0.0000</r>
       <r>  17.7099  0.0000</r>
       <r>  18.4766  0.0000</r>
       <r>  18.4766  0.0000</r>
       <r>  19.0028  0.0000</r>
       <r>  19.4032  0.0000</r>
       <r>  20.0599  0.0000</r>
       <r>  23.9270  0.0000</r>
       <r>  24.2224  0.0000</r>
       <r>  25.1551  0.0000</r>
       <r>  25.1551  0.0000</r>
       <r>  25.3093  0.0000</r>
       <r>  26.2432  0.0000</r>
       <r>  26.2432  0.0000</r>
       <r>  28.0512  0.0000</r>
       <r>  29.2583  0.0000</r>
       <r>  29.2583  0.0000</r>
       <r>  29.8818  0.0000</r>
       <r>  30.7071  0.0000</r>
       <r>  32.0729  0.0000</r>
       <r>  32.3660  0.0000</r>
       <r>  32.3660  0.0000</r>
       <r>  33.6391  0.0000</r>
       <r>  33.6391  0.0000</r>
       <r>  34.0431  0.0000</r>
       <r>  34.5572  0.0000</r>
       <r>  36.8480  0.0000</r>
       <r>  37.9643  0.0000</r>
       <r>  38.5762  0.0000</r>
       <r>  38.5762  0.0000</r>
       <r>  38.6172  0.0000</r>
       <r>  39.4543  0.0000</r>
       <r>  40.3463  0.0000</r>
       <r>  40.3463  0.0000</r>
       <r>  41.0509  0.0000</r>
       <r>  41.2522  0.0000</r>
       <r>  41.9603  0.0000</r>
       <r>  44.6625  0.0000</r>
       <r>  44.7437  0.0000</r>
       <r>  44.7437  0.0000</r>
       <r>  46.6049  0.0000</r>
       <r>  46.6899  0.0000</r>
       <r>  47.1686  0.0000</r>
      </set>
      <set comment="kpoint 13">
       <r> -27.3961  1.0000</r>
       <r> -27.3900  1.0000</r>
       <r> -27.3900  1.0000</r>
       <r>  -3.2043  1.0000</r>
       <r>  -0.4871  1.0000</r>
       <r>   1.0338  1.0000</r>
       <r>   1.2570  1.0000</r>
       <r>   1.2570  1.0000</r>
       <r>   1.5700  1.0000</r>
       <r>   2.9527  1.0000</r>
       <r>   3.4289  1.0000</r>
       <r>   3.4289  1.0000</r>
       <r>   3.4464  1.0000</r>
       <r>   6.5990  1.0000</r>
       <r>   7.4297  0.0000</r>
       <r>   8.1345  0.0000</r>
       <r>   8.1345  0.0000</r>
       <r>   8.8193  0.0000</r>
       <r>  10.6595  0.0000</r>
       <r>  10.6595  0.0000</r>
       <r>  10.7177  0.0000</r>
       <r>  13.0192  0.0000</r>
       <r>  13.8096  0.0000</r>
       <r>  16.4698  0.0000</r>
       <r>  17.2519  0.0000</r>
       <r>  17.2519  0.0000</r>
       <r>  17.8515  0.0000</r>
       <r>  18.3864  0.0000</r>
       <r>  18.3864  0.0000</r>
       <r>  18.8947  0.0000</r>
       <r>  19.4026  0.0000</r>
       <r>  19.8752  0.0000</r>
       <r>  23.7972  0.0000</r>
       <r>  24.4169  0.0000</r>
       <r>  24.7829  0.0000</r>
       <r>  24.7829  0.0000</r>
       <r>  25.1238  0.0000</r>
       <r>  26.2869  0.0000</r>
       <r>  26.2869  0.0000</r>
       <r>  27.6189  0.0000</r>
       <r>  29.3977  0.0000</r>
       <r>  29.3977  0.0000</r>
       <r>  29.8459  0.0000</r>
       <r>  31.0952  0.0000</r>
       <r>  31.9196  0.0000</r>
       <r>  32.6030  0.0000</r>
       <r>  32.6030  0.0000</r>
       <r>  33.6894  0.0000</r>
       <r>  33.6894  0.0000</r>
       <r>  33.7133  0.0000</r>
       <r>  34.6565  0.0000</r>
       <r>  36.8466  0.0000</r>
       <r>  38.4206  0.0000</r>
       <r>  38.9382  0.0000</r>
       <r>  38.9382  0.0000</r>
       <r>  39.1502  0.0000</r>
       <r>  39.8171  0.0000</r>
       <r>  39.8171  0.0000</r>
       <r>  39.8357  0.0000</r>
       <r>  41.3313  0.0000</r>
       <r>  41.4733  0.0000</r>
       <r>  42.3033  0.0000</r>
       <r>  44.4214  0.0000</r>
       <r>  45.0913  0.0000</r>
       <r>  45.0913  0.0000</r>
       <r>  46.3928  0.0000</r>
       <r>  47.2040  0.0000</r>
       <r>  47.2815  0.0000</r>
      </set>
      <set comment="kpoint 14">
       <r> -27.3969  1.0000</r>
       <r> -27.3902  1.0000</r>
       <r> -27.3902  1.0000</r>
       <r>  -2.9970  1.0000</r>
       <r>  -0.6592  1.0000</r>
       <r>   1.0096  1.0000</r>
       <r>   1.2749  1.0000</r>
       <r>   1.2749  1.0000</r>
       <r>   1.5976  1.0000</r>
       <r>   2.9056  1.0000</r>
       <r>   3.2808  1.0000</r>
       <r>   3.4022  1.0000</r>
       <r>   3.4022  1.0000</r>
       <r>   6.4765  1.0000</r>
       <r>   7.4240  0.0000</r>
       <r>   8.0040  0.0000</r>
       <r>   8.0040  0.0000</r>
       <r>   8.8137  0.0000</r>
       <r>  10.9445  0.0000</r>
       <r>  10.9923  0.0000</r>
       <r>  10.9923  0.0000</r>
       <r>  13.2691  0.0000</r>
       <r>  13.9332  0.0000</r>
       <r>  16.3631  0.0000</r>
       <r>  16.8661  0.0000</r>
       <r>  16.8661  0.0000</r>
       <r>  18.0883  0.0000</r>
       <r>  18.6053  0.0000</r>
       <r>  18.6053  0.0000</r>
       <r>  18.8598  0.0000</r>
       <r>  19.4027  0.0000</r>
       <r>  19.7213  0.0000</r>
       <r>  23.3422  0.0000</r>
       <r>  24.3717  0.0000</r>
       <r>  24.3717  0.0000</r>
       <r>  24.7502  0.0000</r>
       <r>  24.8677  0.0000</r>
       <r>  26.3357  0.0000</r>
       <r>  26.3358  0.0000</r>
       <r>  27.2181  0.0000</r>
       <r>  29.5739  0.0000</r>
       <r>  29.5739  0.0000</r>
       <r>  29.9639  0.0000</r>
       <r>  31.4083  0.0000</r>
       <r>  31.8414  0.0000</r>
       <r>  32.6667  0.0000</r>
       <r>  32.6667  0.0000</r>
       <r>  33.4292  0.0000</r>
       <r>  34.0024  0.0000</r>
       <r>  34.0024  0.0000</r>
       <r>  34.7940  0.0000</r>
       <r>  36.7100  0.0000</r>
       <r>  38.7346  0.0000</r>
       <r>  38.7346  0.0000</r>
       <r>  38.9181  0.0000</r>
       <r>  39.6300  0.0000</r>
       <r>  39.8528  0.0000</r>
       <r>  39.8528  0.0000</r>
       <r>  40.2045  0.0000</r>
       <r>  41.6872  0.0000</r>
       <r>  41.7555  0.0000</r>
       <r>  42.6010  0.0000</r>
       <r>  44.2778  0.0000</r>
       <r>  45.1336  0.0000</r>
       <r>  45.1336  0.0000</r>
       <r>  46.1223  0.0000</r>
       <r>  47.1462  0.0000</r>
       <r>  47.1993  0.0000</r>
      </set>
      <set comment="kpoint 15">
       <r> -27.3977  1.0000</r>
       <r> -27.3904  1.0000</r>
       <r> -27.3904  1.0000</r>
       <r>  -2.7860  1.0000</r>
       <r>  -0.8288  1.0000</r>
       <r>   1.0000  1.0000</r>
       <r>   1.2902  1.0000</r>
       <r>   1.2902  1.0000</r>
       <r>   1.6221  1.0000</r>
       <r>   2.7950  1.0000</r>
       <r>   3.1845  1.0000</r>
       <r>   3.3837  1.0000</r>
       <r>   3.3837  1.0000</r>
       <r>   6.3505  1.0000</r>
       <r>   7.4181  0.0000</r>
       <r>   7.8692  0.0000</r>
       <r>   7.8692  0.0000</r>
       <r>   8.8486  0.0000</r>
       <r>  11.1095  0.0000</r>
       <r>  11.3724  0.0000</r>
       <r>  11.3724  0.0000</r>
       <r>  13.4762  0.0000</r>
       <r>  14.0455  0.0000</r>
       <r>  16.2643  0.0000</r>
       <r>  16.3757  0.0000</r>
       <r>  16.3757  0.0000</r>
       <r>  18.4301  0.0000</r>
       <r>  18.8967  0.0000</r>
       <r>  18.9218  0.0000</r>
       <r>  18.9218  0.0000</r>
       <r>  19.4033  0.0000</r>
       <r>  19.5950  0.0000</r>
       <r>  22.8308  0.0000</r>
       <r>  23.9589  0.0000</r>
       <r>  23.9589  0.0000</r>
       <r>  24.4900  0.0000</r>
       <r>  25.0028  0.0000</r>
       <r>  26.3639  0.0000</r>
       <r>  26.3639  0.0000</r>
       <r>  26.8680  0.0000</r>
       <r>  29.7804  0.0000</r>
       <r>  29.7804  0.0000</r>
       <r>  30.2558  0.0000</r>
       <r>  31.6432  0.0000</r>
       <r>  31.8174  0.0000</r>
       <r>  32.6427  0.0000</r>
       <r>  32.6427  0.0000</r>
       <r>  33.1846  0.0000</r>
       <r>  34.4726  0.0000</r>
       <r>  34.4726  0.0000</r>
       <r>  34.9518  0.0000</r>
       <r>  36.4281  0.0000</r>
       <r>  38.1900  0.0000</r>
       <r>  38.1900  0.0000</r>
       <r>  39.4510  0.0000</r>
       <r>  40.0525  0.0000</r>
       <r>  40.2060  0.0000</r>
       <r>  40.2060  0.0000</r>
       <r>  40.5570  0.0000</r>
       <r>  42.0665  0.0000</r>
       <r>  42.1105  0.0000</r>
       <r>  42.8245  0.0000</r>
       <r>  44.2687  0.0000</r>
       <r>  44.8646  0.0000</r>
       <r>  44.8648  0.0000</r>
       <r>  45.9035  0.0000</r>
       <r>  46.8899  0.0000</r>
       <r>  47.3419  0.0000</r>
      </set>
      <set comment="kpoint 16">
       <r> -27.3983  1.0000</r>
       <r> -27.3905  1.0000</r>
       <r> -27.3905  1.0000</r>
       <r>  -2.5752  1.0000</r>
       <r>  -0.9961  1.0000</r>
       <r>   1.0063  1.0000</r>
       <r>   1.3025  1.0000</r>
       <r>   1.3025  1.0000</r>
       <r>   1.6434  1.0000</r>
       <r>   2.6309  1.0000</r>
       <r>   3.1512  1.0000</r>
       <r>   3.3719  1.0000</r>
       <r>   3.3719  1.0000</r>
       <r>   6.2357  1.0000</r>
       <r>   7.4132  0.0000</r>
       <r>   7.7450  0.0000</r>
       <r>   7.7450  0.0000</r>
       <r>   8.9073  0.0000</r>
       <r>  11.2108  0.0000</r>
       <r>  11.7858  0.0000</r>
       <r>  11.7858  0.0000</r>
       <r>  13.6595  0.0000</r>
       <r>  14.1296  0.0000</r>
       <r>  15.8579  0.0000</r>
       <r>  15.8579  0.0000</r>
       <r>  16.1782  0.0000</r>
       <r>  18.8721  0.0000</r>
       <r>  19.0060  0.0000</r>
       <r>  19.2545  0.0000</r>
       <r>  19.2545  0.0000</r>
       <r>  19.4055  0.0000</r>
       <r>  19.4941  0.0000</r>
       <r>  22.2922  0.0000</r>
       <r>  23.5628  0.0000</r>
       <r>  23.5628  0.0000</r>
       <r>  24.0159  0.0000</r>
       <r>  25.1546  0.0000</r>
       <r>  26.3713  0.0000</r>
       <r>  26.3713  0.0000</r>
       <r>  26.5960  0.0000</r>
       <r>  29.9975  0.0000</r>
       <r>  29.9976  0.0000</r>
       <r>  30.6949  0.0000</r>
       <r>  31.8114  0.0000</r>
       <r>  31.8325  0.0000</r>
       <r>  32.6205  0.0000</r>
       <r>  32.6205  0.0000</r>
       <r>  32.9770  0.0000</r>
       <r>  34.9858  0.0000</r>
       <r>  34.9858  0.0000</r>
       <r>  35.1151  0.0000</r>
       <r>  36.0137  0.0000</r>
       <r>  37.6451  0.0000</r>
       <r>  37.6451  0.0000</r>
       <r>  40.0072  0.0000</r>
       <r>  40.4415  0.0000</r>
       <r>  40.5061  0.0000</r>
       <r>  40.5061  0.0000</r>
       <r>  40.9109  0.0000</r>
       <r>  42.3206  0.0000</r>
       <r>  42.5952  0.0000</r>
       <r>  42.9753  0.0000</r>
       <r>  44.3709  0.0000</r>
       <r>  44.5415  0.0000</r>
       <r>  44.5417  0.0000</r>
       <r>  45.8000  0.0000</r>
       <r>  46.2138  0.0000</r>
       <r>  46.7078  0.0000</r>
      </set>
      <set comment="kpoint 17">
       <r> -27.3988  1.0000</r>
       <r> -27.3907  1.0000</r>
       <r> -27.3907  1.0000</r>
       <r>  -2.3689  1.0000</r>
       <r>  -1.1614  1.0000</r>
       <r>   1.0273  1.0000</r>
       <r>   1.3123  1.0000</r>
       <r>   1.3123  1.0000</r>
       <r>   1.6608  1.0000</r>
       <r>   2.4576  1.0000</r>
       <r>   3.1447  1.0000</r>
       <r>   3.3653  1.0000</r>
       <r>   3.3653  1.0000</r>
       <r>   6.1410  1.0000</r>
       <r>   7.4093  0.0000</r>
       <r>   7.6408  0.0000</r>
       <r>   7.6408  0.0000</r>
       <r>   8.9741  0.0000</r>
       <r>  11.2592  0.0000</r>
       <r>  12.2225  0.0000</r>
       <r>  12.2225  0.0000</r>
       <r>  13.8181  0.0000</r>
       <r>  14.1870  0.0000</r>
       <r>  15.3382  0.0000</r>
       <r>  15.3382  0.0000</r>
       <r>  16.1080  0.0000</r>
       <r>  19.1859  0.0000</r>
       <r>  19.3606  0.0000</r>
       <r>  19.4187  0.0000</r>
       <r>  19.4454  0.0000</r>
       <r>  19.5732  0.0000</r>
       <r>  19.5732  0.0000</r>
       <r>  21.7517  0.0000</r>
       <r>  23.2006  0.0000</r>
       <r>  23.2006  0.0000</r>
       <r>  23.4490  0.0000</r>
       <r>  25.2444  0.0000</r>
       <r>  26.3666  0.0000</r>
       <r>  26.3666  0.0000</r>
       <r>  26.4072  0.0000</r>
       <r>  30.1990  0.0000</r>
       <r>  30.1990  0.0000</r>
       <r>  31.2293  0.0000</r>
       <r>  31.8776  0.0000</r>
       <r>  31.9276  0.0000</r>
       <r>  32.6324  0.0000</r>
       <r>  32.6324  0.0000</r>
       <r>  32.8061  0.0000</r>
       <r>  35.2629  0.0000</r>
       <r>  35.4692  0.0000</r>
       <r>  35.4692  0.0000</r>
       <r>  35.4977  0.0000</r>
       <r>  37.1829  0.0000</r>
       <r>  37.1829  0.0000</r>
       <r>  40.5535  0.0000</r>
       <r>  40.6463  0.0000</r>
       <r>  40.6463  0.0000</r>
       <r>  40.8194  0.0000</r>
       <r>  41.2852  0.0000</r>
       <r>  42.4275  0.0000</r>
       <r>  43.0838  0.0000</r>
       <r>  43.1160  0.0000</r>
       <r>  44.3839  0.0000</r>
       <r>  44.3839  0.0000</r>
       <r>  44.4813  0.0000</r>
       <r>  45.5610  0.0000</r>
       <r>  45.9232  0.0000</r>
       <r>  46.0074  0.0000</r>
      </set>
      <set comment="kpoint 18">
       <r> -27.3992  1.0000</r>
       <r> -27.3908  1.0000</r>
       <r> -27.3908  1.0000</r>
       <r>  -2.1736  1.0000</r>
       <r>  -1.3232  1.0000</r>
       <r>   1.0571  1.0000</r>
       <r>   1.3189  1.0000</r>
       <r>   1.3189  1.0000</r>
       <r>   1.6735  1.0000</r>
       <r>   2.3062  1.0000</r>
       <r>   3.1463  1.0000</r>
       <r>   3.3622  1.0000</r>
       <r>   3.3622  1.0000</r>
       <r>   6.0712  1.0000</r>
       <r>   7.4062  0.0000</r>
       <r>   7.5623  0.0000</r>
       <r>   7.5623  0.0000</r>
       <r>   9.0348  0.0000</r>
       <r>  11.2728  0.0000</r>
       <r>  12.6708  0.0000</r>
       <r>  12.6708  0.0000</r>
       <r>  13.9377  0.0000</r>
       <r>  14.2274  0.0000</r>
       <r>  14.8286  0.0000</r>
       <r>  14.8286  0.0000</r>
       <r>  16.0558  0.0000</r>
       <r>  19.3659  0.0000</r>
       <r>  19.3769  0.0000</r>
       <r>  19.4627  0.0000</r>
       <r>  19.8497  0.0000</r>
       <r>  19.8497  0.0000</r>
       <r>  19.9814  0.0000</r>
       <r>  21.2342  0.0000</r>
       <r>  22.8249  0.0000</r>
       <r>  22.8925  0.0000</r>
       <r>  22.8925  0.0000</r>
       <r>  25.2909  0.0000</r>
       <r>  26.2884  0.0000</r>
       <r>  26.3563  0.0000</r>
       <r>  26.3563  0.0000</r>
       <r>  30.3577  0.0000</r>
       <r>  30.3577  0.0000</r>
       <r>  31.7482  0.0000</r>
       <r>  31.9901  0.0000</r>
       <r>  32.0014  0.0000</r>
       <r>  32.6784  0.0000</r>
       <r>  32.6784  0.0000</r>
       <r>  32.6815  0.0000</r>
       <r>  34.9223  0.0000</r>
       <r>  35.3781  0.0000</r>
       <r>  35.8111  0.0000</r>
       <r>  35.8111  0.0000</r>
       <r>  36.8941  0.0000</r>
       <r>  36.8941  0.0000</r>
       <r>  40.5992  0.0000</r>
       <r>  40.5992  0.0000</r>
       <r>  41.0168  0.0000</r>
       <r>  41.1912  0.0000</r>
       <r>  41.7126  0.0000</r>
       <r>  42.3641  0.0000</r>
       <r>  43.1612  0.0000</r>
       <r>  43.6071  0.0000</r>
       <r>  44.4858  0.0000</r>
       <r>  44.4859  0.0000</r>
       <r>  44.5256  0.0000</r>
       <r>  44.9635  0.0000</r>
       <r>  45.5592  0.0000</r>
       <r>  46.4838  0.0000</r>
      </set>
      <set comment="kpoint 19">
       <r> -27.3994  1.0000</r>
       <r> -27.3908  1.0000</r>
       <r> -27.3908  1.0000</r>
       <r>  -2.0042  1.0000</r>
       <r>  -1.4705  1.0000</r>
       <r>   1.0849  1.0000</r>
       <r>   1.3230  1.0000</r>
       <r>   1.3230  1.0000</r>
       <r>   1.6814  1.0000</r>
       <r>   2.2009  1.0000</r>
       <r>   3.1491  1.0000</r>
       <r>   3.3610  1.0000</r>
       <r>   3.3610  1.0000</r>
       <r>   6.0289  1.0000</r>
       <r>   7.4044  0.0000</r>
       <r>   7.5138  0.0000</r>
       <r>   7.5138  0.0000</r>
       <r>   9.0774  0.0000</r>
       <r>  11.2714  0.0000</r>
       <r>  13.1033  0.0000</r>
       <r>  13.1033  0.0000</r>
       <r>  14.0081  0.0000</r>
       <r>  14.2563  0.0000</r>
       <r>  14.3596  0.0000</r>
       <r>  14.3596  0.0000</r>
       <r>  16.0239  0.0000</r>
       <r>  19.3348  0.0000</r>
       <r>  19.3931  0.0000</r>
       <r>  19.7553  0.0000</r>
       <r>  20.0475  0.0000</r>
       <r>  20.0475  0.0000</r>
       <r>  20.4977  0.0000</r>
       <r>  20.8373  0.0000</r>
       <r>  22.2003  0.0000</r>
       <r>  22.6770  0.0000</r>
       <r>  22.6770  0.0000</r>
       <r>  25.3124  0.0000</r>
       <r>  26.2250  0.0000</r>
       <r>  26.3477  0.0000</r>
       <r>  26.3477  0.0000</r>
       <r>  30.4572  0.0000</r>
       <r>  30.4572  0.0000</r>
       <r>  31.9152  0.0000</r>
       <r>  32.0424  0.0000</r>
       <r>  32.3397  0.0000</r>
       <r>  32.6902  0.0000</r>
       <r>  32.7332  0.0000</r>
       <r>  32.7332  0.0000</r>
       <r>  34.3594  0.0000</r>
       <r>  35.4516  0.0000</r>
       <r>  35.9070  0.0000</r>
       <r>  35.9070  0.0000</r>
       <r>  36.8606  0.0000</r>
       <r>  36.8606  0.0000</r>
       <r>  40.4704  0.0000</r>
       <r>  40.4704  0.0000</r>
       <r>  41.3154  0.0000</r>
       <r>  41.5525  0.0000</r>
       <r>  42.1702  0.0000</r>
       <r>  42.1772  0.0000</r>
       <r>  43.2046  0.0000</r>
       <r>  43.8217  0.0000</r>
       <r>  44.5341  0.0000</r>
       <r>  44.5910  0.0000</r>
       <r>  44.8133  0.0000</r>
       <r>  44.8272  0.0000</r>
       <r>  45.4240  0.0000</r>
       <r>  45.9789  0.0000</r>
      </set>
      <set comment="kpoint 20">
       <r> -27.3995  1.0000</r>
       <r> -27.3909  1.0000</r>
       <r> -27.3909  1.0000</r>
       <r>  -1.9201  1.0000</r>
       <r>  -1.5469  1.0000</r>
       <r>   1.0965  1.0000</r>
       <r>   1.3243  1.0000</r>
       <r>   1.3243  1.0000</r>
       <r>   1.6841  1.0000</r>
       <r>   2.1627  1.0000</r>
       <r>   3.1503  1.0000</r>
       <r>   3.3607  1.0000</r>
       <r>   3.3607  1.0000</r>
       <r>   6.0147  1.0000</r>
       <r>   7.4038  0.0000</r>
       <r>   7.4973  0.0000</r>
       <r>   7.4973  0.0000</r>
       <r>   9.0926  0.0000</r>
       <r>  11.2691  0.0000</r>
       <r>  13.3563  0.0000</r>
       <r>  13.3563  0.0000</r>
       <r>  14.0302  0.0000</r>
       <r>  14.0943  0.0000</r>
       <r>  14.0943  0.0000</r>
       <r>  14.2678  0.0000</r>
       <r>  16.0131  0.0000</r>
       <r>  19.3245  0.0000</r>
       <r>  19.3945  0.0000</r>
       <r>  19.9842  0.0000</r>
       <r>  20.1212  0.0000</r>
       <r>  20.1212  0.0000</r>
       <r>  20.4026  0.0000</r>
       <r>  21.0261  0.0000</r>
       <r>  21.8085  0.0000</r>
       <r>  22.5974  0.0000</r>
       <r>  22.5974  0.0000</r>
       <r>  25.3184  0.0000</r>
       <r>  26.2049  0.0000</r>
       <r>  26.3444  0.0000</r>
       <r>  26.3444  0.0000</r>
       <r>  30.4907  0.0000</r>
       <r>  30.4907  0.0000</r>
       <r>  31.9434  0.0000</r>
       <r>  32.0555  0.0000</r>
       <r>  32.4200  0.0000</r>
       <r>  32.7580  0.0000</r>
       <r>  32.7580  0.0000</r>
       <r>  32.8773  0.0000</r>
       <r>  34.0517  0.0000</r>
       <r>  35.4768  0.0000</r>
       <r>  35.8941  0.0000</r>
       <r>  35.8941  0.0000</r>
       <r>  36.9016  0.0000</r>
       <r>  36.9016  0.0000</r>
       <r>  40.4039  0.0000</r>
       <r>  40.4039  0.0000</r>
       <r>  41.4172  0.0000</r>
       <r>  41.8755  0.0000</r>
       <r>  41.8994  0.0000</r>
       <r>  42.4360  0.0000</r>
       <r>  43.2176  0.0000</r>
       <r>  43.7091  0.0000</r>
       <r>  44.5364  0.0000</r>
       <r>  44.5490  0.0000</r>
       <r>  45.1551  0.0000</r>
       <r>  45.2420  0.0000</r>
       <r>  45.5382  0.0000</r>
       <r>  45.7175  0.0000</r>
      </set>
      <set comment="kpoint 21">
       <r> -27.3995  1.0000</r>
       <r> -27.3909  1.0000</r>
       <r> -27.3909  1.0000</r>
       <r>  -1.9201  1.0000</r>
       <r>  -1.5469  1.0000</r>
       <r>   1.0965  1.0000</r>
       <r>   1.3243  1.0000</r>
       <r>   1.3243  1.0000</r>
       <r>   1.6841  1.0000</r>
       <r>   2.1627  1.0000</r>
       <r>   3.1503  1.0000</r>
       <r>   3.3607  1.0000</r>
       <r>   3.3607  1.0000</r>
       <r>   6.0147  1.0000</r>
       <r>   7.4038  0.0000</r>
       <r>   7.4973  0.0000</r>
       <r>   7.4973  0.0000</r>
       <r>   9.0926  0.0000</r>
       <r>  11.2691  0.0000</r>
       <r>  13.3563  0.0000</r>
       <r>  13.3563  0.0000</r>
       <r>  14.0302  0.0000</r>
       <r>  14.0943  0.0000</r>
       <r>  14.0943  0.0000</r>
       <r>  14.2678  0.0000</r>
       <r>  16.0131  0.0000</r>
       <r>  19.3245  0.0000</r>
       <r>  19.3945  0.0000</r>
       <r>  19.9842  0.0000</r>
       <r>  20.1212  0.0000</r>
       <r>  20.1212  0.0000</r>
       <r>  20.4026  0.0000</r>
       <r>  21.0261  0.0000</r>
       <r>  21.8085  0.0000</r>
       <r>  22.5974  0.0000</r>
       <r>  22.5974  0.0000</r>
       <r>  25.3184  0.0000</r>
       <r>  26.2049  0.0000</r>
       <r>  26.3444  0.0000</r>
       <r>  26.3444  0.0000</r>
       <r>  30.4907  0.0000</r>
       <r>  30.4907  0.0000</r>
       <r>  31.9434  0.0000</r>
       <r>  32.0555  0.0000</r>
       <r>  32.4200  0.0000</r>
       <r>  32.7580  0.0000</r>
       <r>  32.7580  0.0000</r>
       <r>  32.8773  0.0000</r>
       <r>  34.0517  0.0000</r>
       <r>  35.4768  0.0000</r>
       <r>  35.8941  0.0000</r>
       <r>  35.8941  0.0000</r>
       <r>  36.9016  0.0000</r>
       <r>  36.9016  0.0000</r>
       <r>  40.4039  0.0000</r>
       <r>  40.4039  0.0000</r>
       <r>  41.4172  0.0000</r>
       <r>  41.8755  0.0000</r>
       <r>  41.8994  0.0000</r>
       <r>  42.4360  0.0000</r>
       <r>  43.2176  0.0000</r>
       <r>  43.7090  0.0000</r>
       <r>  44.5348  0.0000</r>
       <r>  44.5490  0.0000</r>
       <r>  45.1579  0.0000</r>
       <r>  45.1721  0.0000</r>
       <r>  45.5522  0.0000</r>
       <r>  45.6638  0.0000</r>
      </set>
      <set comment="kpoint 22">
       <r> -27.3995  1.0000</r>
       <r> -27.3909  1.0000</r>
       <r> -27.3909  1.0000</r>
       <r>  -1.9193  1.0000</r>
       <r>  -1.5462  1.0000</r>
[...]
       <r>  20.3263  0.0000</r>
       <r>  20.7219  0.0000</r>
       <r>  20.8426  0.0000</r>
       <r>  21.1210  0.0000</r>
       <r>  22.2169  0.0000</r>
       <r>  22.4021  0.0000</r>
       <r>  22.7725  0.0000</r>
       <r>  24.2098  0.0000</r>
       <r>  25.7904  0.0000</r>
       <r>  26.4821  0.0000</r>
       <r>  27.8768  0.0000</r>
       <r>  29.7869  0.0000</r>
       <r>  30.3404  0.0000</r>
       <r>  31.2777  0.0000</r>
       <r>  31.6126  0.0000</r>
       <r>  32.2844  0.0000</r>
       <r>  32.8423  0.0000</r>
       <r>  33.5495  0.0000</r>
       <r>  33.7826  0.0000</r>
       <r>  34.5015  0.0000</r>
       <r>  34.9764  0.0000</r>
       <r>  35.7530  0.0000</r>
       <r>  36.3499  0.0000</r>
       <r>  36.4767  0.0000</r>
       <r>  37.3865  0.0000</r>
       <r>  39.4472  0.0000</r>
       <r>  40.1094  0.0000</r>
       <r>  41.0852  0.0000</r>
       <r>  41.9883  0.0000</r>
       <r>  41.9904  0.0000</r>
       <r>  42.3860  0.0000</r>
       <r>  43.3026  0.0000</r>
       <r>  43.7551  0.0000</r>
       <r>  44.0575  0.0000</r>
       <r>  44.2788  0.0000</r>
       <r>  45.0371  0.0000</r>
       <r>  45.2725  0.0000</r>
       <r>  45.5065  0.0000</r>
       <r>  45.5896  0.0000</r>
      </set>
      <set comment="kpoint 193">
       <r> -27.3991  1.0000</r>
       <r> -27.3913  1.0000</r>
       <r> -27.3908  1.0000</r>
       <r>  -1.9046  1.0000</r>
       <r>  -1.5275  1.0000</r>
       <r>   1.0804  1.0000</r>
       <r>   1.2952  1.0000</r>
       <r>   1.3804  1.0000</r>
       <r>   1.6542  1.0000</r>
       <r>   2.1444  1.0000</r>
       <r>   2.6345  1.0000</r>
       <r>   3.4285  1.0000</r>
       <r>   3.7497  1.0000</r>
       <r>   6.1938  1.0000</r>
       <r>   7.2458  0.3337</r>
       <r>   7.5794  0.0000</r>
       <r>   7.6917  0.0000</r>
       <r>   9.0582  0.0000</r>
       <r>  11.2560  0.0000</r>
       <r>  12.8514  0.0000</r>
       <r>  13.3013  0.0000</r>
       <r>  13.3566  0.0000</r>
       <r>  13.8057  0.0000</r>
       <r>  14.2659  0.0000</r>
       <r>  15.4207  0.0000</r>
       <r>  16.3621  0.0000</r>
       <r>  18.8645  0.0000</r>
       <r>  19.0346  0.0000</r>
       <r>  19.3991  0.0000</r>
       <r>  20.3205  0.0000</r>
       <r>  20.6203  0.0000</r>
       <r>  20.8628  0.0000</r>
       <r>  21.0661  0.0000</r>
       <r>  22.1203  0.0000</r>
       <r>  22.4328  0.0000</r>
       <r>  22.7322  0.0000</r>
       <r>  24.3975  0.0000</r>
       <r>  25.7911  0.0000</r>
       <r>  26.4506  0.0000</r>
       <r>  27.6826  0.0000</r>
       <r>  29.9496  0.0000</r>
       <r>  30.3966  0.0000</r>
       <r>  31.3417  0.0000</r>
       <r>  31.6340  0.0000</r>
       <r>  32.2587  0.0000</r>
       <r>  32.7854  0.0000</r>
       <r>  33.5661  0.0000</r>
       <r>  33.8282  0.0000</r>
       <r>  34.2695  0.0000</r>
       <r>  34.9065  0.0000</r>
       <r>  35.8349  0.0000</r>
       <r>  36.3695  0.0000</r>
       <r>  36.5125  0.0000</r>
       <r>  37.2571  0.0000</r>
       <r>  39.6385  0.0000</r>
       <r>  40.1547  0.0000</r>
       <r>  41.1794  0.0000</r>
       <r>  42.0138  0.0000</r>
       <r>  42.0739  0.0000</r>
       <r>  42.2926  0.0000</r>
       <r>  43.2601  0.0000</r>
       <r>  43.7531  0.0000</r>
       <r>  44.0974  0.0000</r>
       <r>  44.2925  0.0000</r>
       <r>  45.0452  0.0000</r>
       <r>  45.3165  0.0000</r>
       <r>  45.5385  0.0000</r>
       <r>  45.6548  0.0000</r>
      </set>
      <set comment="kpoint 194">
       <r> -27.3992  1.0000</r>
       <r> -27.3912  1.0000</r>
       <r> -27.3908  1.0000</r>
       <r>  -1.9080  1.0000</r>
       <r>  -1.5330  1.0000</r>
       <r>   1.0849  1.0000</r>
       <r>   1.3030  1.0000</r>
       <r>   1.3664  1.0000</r>
       <r>   1.6615  1.0000</r>
       <r>   2.1506  1.0000</r>
       <r>   2.7198  1.0000</r>
       <r>   3.4110  1.0000</r>
       <r>   3.6925  1.0000</r>
       <r>   6.1517  1.0000</r>
       <r>   7.2728  0.1163</r>
       <r>   7.5558  0.0000</r>
       <r>   7.6553  0.0000</r>
       <r>   9.0666  0.0000</r>
       <r>  11.2607  0.0000</r>
       <r>  13.0239  0.0000</r>
       <r>  13.3150  0.0000</r>
       <r>  13.3571  0.0000</r>
       <r>  13.8728  0.0000</r>
       <r>  14.2383  0.0000</r>
       <r>  15.2380  0.0000</r>
       <r>  16.2799  0.0000</r>
       <r>  18.9525  0.0000</r>
       <r>  19.1768  0.0000</r>
       <r>  19.4008  0.0000</r>
       <r>  20.3024  0.0000</r>
       <r>  20.5206  0.0000</r>
       <r>  20.8919  0.0000</r>
       <r>  20.9923  0.0000</r>
       <r>  22.0298  0.0000</r>
       <r>  22.4691  0.0000</r>
       <r>  22.6969  0.0000</r>
       <r>  24.5898  0.0000</r>
       <r>  25.7962  0.0000</r>
       <r>  26.4229  0.0000</r>
       <r>  27.4831  0.0000</r>
       <r>  30.0955  0.0000</r>
       <r>  30.4379  0.0000</r>
       <r>  31.4210  0.0000</r>
       <r>  31.6771  0.0000</r>
       <r>  32.2412  0.0000</r>
       <r>  32.7364  0.0000</r>
       <r>  33.5170  0.0000</r>
       <r>  33.8571  0.0000</r>
       <r>  34.0551  0.0000</r>
       <r>  34.9033  0.0000</r>
       <r>  35.8829  0.0000</r>
       <r>  36.3664  0.0000</r>
       <r>  36.5738  0.0000</r>
       <r>  37.1400  0.0000</r>
       <r>  39.8172  0.0000</r>
       <r>  40.2024  0.0000</r>
       <r>  41.2547  0.0000</r>
       <r>  42.0164  0.0000</r>
       <r>  42.1604  0.0000</r>
       <r>  42.2047  0.0000</r>
       <r>  43.2281  0.0000</r>
       <r>  43.7368  0.0000</r>
       <r>  44.1534  0.0000</r>
       <r>  44.3214  0.0000</r>
       <r>  45.0631  0.0000</r>
       <r>  45.3198  0.0000</r>
       <r>  45.5080  0.0000</r>
       <r>  45.6956  0.0000</r>
      </set>
      <set comment="kpoint 195">
       <r> -27.3993  1.0000</r>
       <r> -27.3911  1.0000</r>
       <r> -27.3908  1.0000</r>
       <r>  -1.9113  1.0000</r>
       <r>  -1.5375  1.0000</r>
       <r>   1.0885  1.0000</r>
       <r>   1.3096  1.0000</r>
       <r>   1.3540  1.0000</r>
       <r>   1.6680  1.0000</r>
       <r>   2.1549  1.0000</r>
       <r>   2.8066  1.0000</r>
       <r>   3.3960  1.0000</r>
       <r>   3.6327  1.0000</r>
       <r>   6.1132  1.0000</r>
       <r>   7.2995  0.0257</r>
       <r>   7.5368  0.0000</r>
       <r>   7.6205  0.0000</r>
       <r>   9.0742  0.0000</r>
       <r>  11.2640  0.0000</r>
       <r>  13.1984  0.0000</r>
       <r>  13.3273  0.0000</r>
       <r>  13.3571  0.0000</r>
       <r>  13.9341  0.0000</r>
       <r>  14.2149  0.0000</r>
       <r>  15.0538  0.0000</r>
       <r>  16.2052  0.0000</r>
       <r>  19.0397  0.0000</r>
       <r>  19.3165  0.0000</r>
       <r>  19.4081  0.0000</r>
       <r>  20.2786  0.0000</r>
       <r>  20.4242  0.0000</r>
       <r>  20.8845  0.0000</r>
       <r>  20.9381  0.0000</r>
       <r>  21.9548  0.0000</r>
       <r>  22.5038  0.0000</r>
       <r>  22.6667  0.0000</r>
       <r>  24.7796  0.0000</r>
       <r>  25.8097  0.0000</r>
       <r>  26.3990  0.0000</r>
       <r>  27.2797  0.0000</r>
       <r>  30.2205  0.0000</r>
       <r>  30.4650  0.0000</r>
       <r>  31.5181  0.0000</r>
       <r>  31.7382  0.0000</r>
       <r>  32.2352  0.0000</r>
       <r>  32.6964  0.0000</r>
       <r>  33.4099  0.0000</r>
       <r>  33.7642  0.0000</r>
       <r>  33.9640  0.0000</r>
       <r>  34.9598  0.0000</r>
       <r>  35.9042  0.0000</r>
       <r>  36.3325  0.0000</r>
       <r>  36.6510  0.0000</r>
       <r>  37.0442  0.0000</r>
       <r>  39.9797  0.0000</r>
       <r>  40.2495  0.0000</r>
       <r>  41.3121  0.0000</r>
       <r>  42.0002  0.0000</r>
       <r>  42.1228  0.0000</r>
       <r>  42.2432  0.0000</r>
       <r>  43.2097  0.0000</r>
       <r>  43.7179  0.0000</r>
       <r>  44.2192  0.0000</r>
       <r>  44.3607  0.0000</r>
       <r>  45.1024  0.0000</r>
       <r>  45.3114  0.0000</r>
       <r>  45.5343  0.0000</r>
       <r>  45.7741  0.0000</r>
      </set>
      <set comment="kpoint 196">
       <r> -27.3994  1.0000</r>
       <r> -27.3910  1.0000</r>
       <r> -27.3908  1.0000</r>
       <r>  -1.9143  1.0000</r>
       <r>  -1.5410  1.0000</r>
       <r>   1.0914  1.0000</r>
       <r>   1.3149  1.0000</r>
       <r>   1.3436  1.0000</r>
       <r>   1.6735  1.0000</r>
       <r>   2.1580  1.0000</r>
       <r>   2.8929  1.0000</r>
       <r>   3.3834  1.0000</r>
       <r>   3.5705  1.0000</r>
       <r>   6.0795  1.0000</r>
       <r>   7.3258  0.0036</r>
       <r>   7.5219  0.0000</r>
       <r>   7.5873  0.0000</r>
       <r>   9.0806  0.0000</r>
       <r>  11.2662  0.0000</r>
       <r>  13.3364  0.0000</r>
       <r>  13.3570  0.0000</r>
       <r>  13.3760  0.0000</r>
       <r>  13.9880  0.0000</r>
       <r>  14.1956  0.0000</r>
       <r>  14.8698  0.0000</r>
       <r>  16.1398  0.0000</r>
       <r>  19.1236  0.0000</r>
       <r>  19.3862  0.0000</r>
       <r>  19.4874  0.0000</r>
       <r>  20.2534  0.0000</r>
       <r>  20.3332  0.0000</r>
       <r>  20.7783  0.0000</r>
       <r>  20.9638  0.0000</r>
       <r>  21.8972  0.0000</r>
       <r>  22.5352  0.0000</r>
       <r>  22.6419  0.0000</r>
       <r>  24.9574  0.0000</r>
       <r>  25.8370  0.0000</r>
       <r>  26.3795  0.0000</r>
       <r>  27.0740  0.0000</r>
       <r>  30.3215  0.0000</r>
       <r>  30.4804  0.0000</r>
       <r>  31.6330  0.0000</r>
       <r>  31.8069  0.0000</r>
       <r>  32.2465  0.0000</r>
       <r>  32.6669  0.0000</r>
       <r>  33.2645  0.0000</r>
       <r>  33.5608  0.0000</r>
       <r>  33.9843  0.0000</r>
       <r>  35.0578  0.0000</r>
       <r>  35.9089  0.0000</r>
       <r>  36.2643  0.0000</r>
       <r>  36.7294  0.0000</r>
       <r>  36.9765  0.0000</r>
       <r>  40.1222  0.0000</r>
       <r>  40.2964  0.0000</r>
       <r>  41.3538  0.0000</r>
       <r>  41.9717  0.0000</r>
       <r>  42.0483  0.0000</r>
       <r>  42.3149  0.0000</r>
       <r>  43.2034  0.0000</r>
       <r>  43.7047  0.0000</r>
       <r>  44.2918  0.0000</r>
       <r>  44.4058  0.0000</r>
       <r>  45.1516  0.0000</r>
       <r>  45.2807  0.0000</r>
       <r>  45.5594  0.0000</r>
       <r>  45.7995  0.0000</r>
      </set>
      <set comment="kpoint 197">
       <r> -27.3994  1.0000</r>
       <r> -27.3909  1.0000</r>
       <r> -27.3908  1.0000</r>
       <r>  -1.9167  1.0000</r>
       <r>  -1.5437  1.0000</r>
       <r>   1.0937  1.0000</r>
       <r>   1.3191  1.0000</r>
       <r>   1.3353  1.0000</r>
       <r>   1.6780  1.0000</r>
       <r>   2.1602  1.0000</r>
       <r>   2.9770  1.0000</r>
       <r>   3.3735  1.0000</r>
       <r>   3.5065  1.0000</r>
       <r>   6.0519  1.0000</r>
       <r>   7.3515  0.0003</r>
       <r>   7.5109  0.0000</r>
       <r>   7.5565  0.0000</r>
       <r>   9.0857  0.0000</r>
       <r>  11.2676  0.0000</r>
       <r>  13.3453  0.0000</r>
       <r>  13.3568  0.0000</r>
       <r>  13.5528  0.0000</r>
       <r>  14.0327  0.0000</r>
       <r>  14.1798  0.0000</r>
       <r>  14.6870  0.0000</r>
       <r>  16.0863  0.0000</r>
       <r>  19.2005  0.0000</r>
       <r>  19.3924  0.0000</r>
       <r>  19.6305  0.0000</r>
       <r>  20.2280  0.0000</r>
       <r>  20.2513  0.0000</r>
       <r>  20.6574  0.0000</r>
       <r>  20.9899  0.0000</r>
       <r>  21.8561  0.0000</r>
       <r>  22.5614  0.0000</r>
       <r>  22.6225  0.0000</r>
       <r>  25.1113  0.0000</r>
       <r>  25.8885  0.0000</r>
       <r>  26.3642  0.0000</r>
       <r>  26.8684  0.0000</r>
       <r>  30.3978  0.0000</r>
       <r>  30.4876  0.0000</r>
       <r>  31.7619  0.0000</r>
       <r>  31.8696  0.0000</r>
       <r>  32.2821  0.0000</r>
       <r>  32.6510  0.0000</r>
       <r>  33.1022  0.0000</r>
       <r>  33.3541  0.0000</r>
       <r>  34.0115  0.0000</r>
       <r>  35.1795  0.0000</r>
       <r>  35.9058  0.0000</r>
       <r>  36.1666  0.0000</r>
       <r>  36.8000  0.0000</r>
       <r>  36.9357  0.0000</r>
       <r>  40.2404  0.0000</r>
       <r>  40.3389  0.0000</r>
       <r>  41.3835  0.0000</r>
       <r>  41.9401  0.0000</r>
       <r>  41.9836  0.0000</r>
       <r>  42.3707  0.0000</r>
       <r>  43.2055  0.0000</r>
       <r>  43.7002  0.0000</r>
       <r>  44.3699  0.0000</r>
       <r>  44.4520  0.0000</r>
       <r>  45.2040  0.0000</r>
       <r>  45.2472  0.0000</r>
       <r>  45.5231  0.0000</r>
       <r>  45.6001  0.0000</r>
      </set>
      <set comment="kpoint 198">
       <r> -27.3995  1.0000</r>
       <r> -27.3909  1.0000</r>
       <r> -27.3908  1.0000</r>
       <r>  -1.9186  1.0000</r>
       <r>  -1.5455  1.0000</r>
       <r>   1.0953  1.0000</r>
       <r>   1.3220  1.0000</r>
       <r>   1.3293  1.0000</r>
       <r>   1.6814  1.0000</r>
       <r>   2.1616  1.0000</r>
       <r>   3.0555  1.0000</r>
       <r>   3.3664  1.0000</r>
       <r>   3.4430  1.0000</r>
       <r>   6.0315  1.0000</r>
       <r>   7.3755  0.0000</r>
       <r>   7.5033  0.0000</r>
       <r>   7.5286  0.0000</r>
       <r>   9.0895  0.0000</r>
       <r>  11.2685  0.0000</r>
       <r>  13.3514  0.0000</r>
       <r>  13.3565  0.0000</r>
       <r>  13.7300  0.0000</r>
       <r>  14.0663  0.0000</r>
       <r>  14.1660  0.0000</r>
       <r>  14.5084  0.0000</r>
       <r>  16.0463  0.0000</r>
       <r>  19.2647  0.0000</r>
       <r>  19.3939  0.0000</r>
       <r>  19.7753  0.0000</r>
       <r>  20.1837  0.0000</r>
       <r>  20.1999  0.0000</r>
       <r>  20.5374  0.0000</r>
       <r>  21.0097  0.0000</r>
       <r>  21.8289  0.0000</r>
       <r>  22.5811  0.0000</r>
       <r>  22.6086  0.0000</r>
       <r>  25.2273  0.0000</r>
       <r>  25.9747  0.0000</r>
       <r>  26.3532  0.0000</r>
       <r>  26.6660  0.0000</r>
       <r>  30.4503  0.0000</r>
       <r>  30.4902  0.0000</r>
       <r>  31.8943  0.0000</r>
       <r>  31.9135  0.0000</r>
       <r>  32.3405  0.0000</r>
       <r>  32.6563  0.0000</r>
       <r>  32.9423  0.0000</r>
       <r>  33.1583  0.0000</r>
       <r>  34.0332  0.0000</r>
       <r>  35.3085  0.0000</r>
       <r>  35.9003  0.0000</r>
       <r>  36.0524  0.0000</r>
       <r>  36.8550  0.0000</r>
       <r>  36.9142  0.0000</r>
       <r>  40.3294  0.0000</r>
       <r>  40.3733  0.0000</r>
       <r>  41.4029  0.0000</r>
       <r>  41.9104  0.0000</r>
       <r>  41.9343  0.0000</r>
       <r>  42.4084  0.0000</r>
       <r>  43.2109  0.0000</r>
       <r>  43.7024  0.0000</r>
       <r>  44.4513  0.0000</r>
       <r>  44.4950  0.0000</r>
       <r>  45.2006  0.0000</r>
       <r>  45.2959  0.0000</r>
       <r>  45.5220  0.0000</r>
       <r>  45.8330  0.0000</r>
      </set>
      <set comment="kpoint 199">
       <r> -27.3995  1.0000</r>
       <r> -27.3909  1.0000</r>
       <r> -27.3909  1.0000</r>
       <r>  -1.9197  1.0000</r>
       <r>  -1.5466  1.0000</r>
       <r>   1.0962  1.0000</r>
       <r>   1.3238  1.0000</r>
       <r>   1.3256  1.0000</r>
       <r>   1.6834  1.0000</r>
       <r>   2.1624  1.0000</r>
       <r>   3.1208  1.0000</r>
       <r>   3.3621  1.0000</r>
       <r>   3.3870  1.0000</r>
       <r>   6.0189  1.0000</r>
       <r>   7.3953  0.0000</r>
       <r>   7.4988  0.0000</r>
       <r>   7.5067  0.0000</r>
       <r>   9.0918  0.0000</r>
       <r>  11.2690  0.0000</r>
       <r>  13.3551  0.0000</r>
       <r>  13.3564  0.0000</r>
       <r>  13.9027  0.0000</r>
       <r>  14.0872  0.0000</r>
       <r>  14.1460  0.0000</r>
       <r>  14.3467  0.0000</r>
       <r>  16.0215  0.0000</r>
       <r>  19.3086  0.0000</r>
       <r>  19.3944  0.0000</r>
       <r>  19.9085  0.0000</r>
       <r>  20.1377  0.0000</r>
       <r>  20.1601  0.0000</r>
       <r>  20.4409  0.0000</r>
       <r>  21.0220  0.0000</r>
       <r>  21.8135  0.0000</r>
       <r>  22.5933  0.0000</r>
       <r>  22.6002  0.0000</r>
       <r>  25.2962  0.0000</r>
       <r>  26.0977  0.0000</r>
       <r>  26.3466  0.0000</r>
       <r>  26.4739  0.0000</r>
       <r>  30.4807  0.0000</r>
       <r>  30.4907  0.0000</r>
       <r>  31.9365  0.0000</r>
       <r>  32.0070  0.0000</r>
       <r>  32.3975  0.0000</r>
       <r>  32.6987  0.0000</r>
       <r>  32.8123  0.0000</r>
       <r>  32.9834  0.0000</r>
       <r>  34.0470  0.0000</r>
       <r>  35.4234  0.0000</r>
       <r>  35.8958  0.0000</r>
       <r>  35.9452  0.0000</r>
       <r>  36.8897  0.0000</r>
       <r>  36.9044  0.0000</r>
       <r>  40.3850  0.0000</r>
       <r>  40.3960  0.0000</r>
       <r>  41.4137  0.0000</r>
       <r>  41.8857  0.0000</r>
       <r>  41.9073  0.0000</r>
       <r>  42.4294  0.0000</r>
       <r>  43.2157  0.0000</r>
       <r>  43.7069  0.0000</r>
       <r>  44.5192  0.0000</r>
       <r>  44.5241  0.0000</r>
       <r>  45.1911  0.0000</r>
       <r>  45.2200  0.0000</r>
       <r>  45.5117  0.0000</r>
       <r>  45.6765  0.0000</r>
      </set>
      <set comment="kpoint 200">
       <r> -27.3995  1.0000</r>
       <r> -27.3909  1.0000</r>
       <r> -27.3909  1.0000</r>
       <r>  -1.9201  1.0000</r>
       <r>  -1.5469  1.0000</r>
       <r>   1.0965  1.0000</r>
       <r>   1.3243  1.0000</r>
       <r>   1.3243  1.0000</r>
       <r>   1.6841  1.0000</r>
       <r>   2.1627  1.0000</r>
       <r>   3.1503  1.0000</r>
       <r>   3.3607  1.0000</r>
       <r>   3.3607  1.0000</r>
       <r>   6.0147  1.0000</r>
       <r>   7.4038  0.0000</r>
       <r>   7.4973  0.0000</r>
       <r>   7.4973  0.0000</r>
       <r>   9.0926  0.0000</r>
       <r>  11.2691  0.0000</r>
       <r>  13.3563  0.0000</r>
       <r>  13.3563  0.0000</r>
       <r>  14.0302  0.0000</r>
       <r>  14.0943  0.0000</r>
       <r>  14.0943  0.0000</r>
       <r>  14.2678  0.0000</r>
       <r>  16.0131  0.0000</r>
       <r>  19.3245  0.0000</r>
       <r>  19.3945  0.0000</r>
       <r>  19.9842  0.0000</r>
       <r>  20.1212  0.0000</r>
       <r>  20.1212  0.0000</r>
       <r>  20.4026  0.0000</r>
       <r>  21.0261  0.0000</r>
       <r>  21.8085  0.0000</r>
       <r>  22.5974  0.0000</r>
       <r>  22.5974  0.0000</r>
       <r>  25.3184  0.0000</r>
       <r>  26.2049  0.0000</r>
       <r>  26.3444  0.0000</r>
       <r>  26.3444  0.0000</r>
       <r>  30.4907  0.0000</r>
       <r>  30.4907  0.0000</r>
       <r>  31.9434  0.0000</r>
       <r>  32.0555  0.0000</r>
       <r>  32.4200  0.0000</r>
       <r>  32.7580  0.0000</r>
       <r>  32.7580  0.0000</r>
       <r>  32.8773  0.0000</r>
       <r>  34.0517  0.0000</r>
       <r>  35.4768  0.0000</r>
       <r>  35.8941  0.0000</r>
       <r>  35.8941  0.0000</r>
       <r>  36.9016  0.0000</r>
       <r>  36.9016  0.0000</r>
       <r>  40.4039  0.0000</r>
       <r>  40.4039  0.0000</r>
       <r>  41.4172  0.0000</r>
       <r>  41.8755  0.0000</r>
       <r>  41.8994  0.0000</r>
       <r>  42.4360  0.0000</r>
       <r>  43.2176  0.0000</r>
       <r>  43.7090  0.0000</r>
       <r>  44.5347  0.0000</r>
       <r>  44.5490  0.0000</r>
       <r>  45.1544  0.0000</r>
       <r>  45.1945  0.0000</r>
       <r>  45.5333  0.0000</r>
       <r>  45.6646  0.0000</r>
      </set>
     </set>
    </set>
   </array>
  </eigenvalues>
 </calculation>
 <structure name="finalpos" >
  <crystal>
   <varray name="basis" >
    <v>       0.00000000       3.20137862       3.20137862 </v>
    <v>       3.20137862       0.00000000       3.20137862 </v>
    <v>       3.20137862       3.20137862       0.00000000 </v>
   </varray>
   <i name="volume">     65.62073919</i>
   <varray name="rec_basis" >
    <v>      -0.15618271       0.15618271       0.15618271 </v>
    <v>       0.15618271      -0.15618271       0.15618271 </v>
    <v>       0.15618271       0.15618271      -0.15618271 </v>
   </varray>
  </crystal>
  <varray name="positions" >
   <v>       0.50000000       0.50000000       0.50000000 </v>
   <v>       0.00000000       0.00000000       0.00000000 </v>
   <v>       0.75000000       0.75000000       0.75000000 </v>
   <v>       0.25000000       0.25000000       0.25000000 </v>
  </varray>
 </structure>
</modeling>
