 Entering Gaussian System, Link 0=g09
 Initial command:
 /usr/local/gaussian/g09.b01.em64t.linda/g09/l1.exe /tmp/rdj3/g09-19441/Gau-16387.inp -scrdir=/tmp/rdj3/g09-19441/
 Entering Link 1 = /usr/local/gaussian/g09.b01.em64t.linda/g09/l1.exe PID=     16388.
  
 Copyright (c) 1988,1990,1992,1993,1995,1998,2003,2009,2010,
            Gaussian, Inc.  All Rights Reserved.
  
 This is part of the Gaussian(R) 09 program.  It is based on
 the Gaussian(R) 03 system (copyright 2003, Gaussian, Inc.),
 the Gaussian(R) 98 system (copyright 1998, Gaussian, Inc.),
 the Gaussian(R) 94 system (copyright 1995, Gaussian, Inc.),
 the Gaussian 92(TM) system (copyright 1992, Gaussian, Inc.),
 the Gaussian 90(TM) system (copyright 1990, Gaussian, Inc.),
 the Gaussian 88(TM) system (copyright 1988, Gaussian, Inc.),
 the Gaussian 86(TM) system (copyright 1986, Carnegie Mellon
 University), and the Gaussian 82(TM) system (copyright 1983,
 Carnegie Mellon University). Gaussian is a federally registered
 trademark of Gaussian, Inc.
  
 This software contains proprietary and confidential information,
 including trade secrets, belonging to Gaussian, Inc.
  
 This software is provided under written license and may be
 used, copied, transmitted, or stored only in accord with that
 written license.
  
 The following legend is applicable only to US Government
 contracts under FAR:
  
                    RESTRICTED RIGHTS LEGEND
  
 Use, reproduction and disclosure by the US Government is
 subject to restrictions as set forth in subparagraphs (a)
 and (c) of the Commercial Computer Software - Restricted
 Rights clause in FAR 52.227-19.
  
 Gaussian, Inc.
 340 Quinnipiac St., Bldg. 40, Wallingford CT 06492
  
  
 ---------------------------------------------------------------
 Warning -- This program may not be used in any manner that
 competes with the business of Gaussian, Inc. or will provide
 assistance to any competitor of Gaussian, Inc.  The licensee
 of this program is prohibited from giving any competitor of
 Gaussian, Inc. access to this program.  By using this program,
 the user acknowledges that Gaussian, Inc. is engaged in the
 business of creating and licensing software in the field of
 computational chemistry and represents and warrants to the
 licensee that it is not a competitor of Gaussian, Inc. and that
 it will not use this program in any manner prohibited above.
 ---------------------------------------------------------------
  

 Cite this work as:
 Gaussian 09, Revision B.01,
 M. J. Frisch, G. W. Trucks, H. B. Schlegel, G. E. Scuseria, 
 M. A. Robb, J. R. Cheeseman, G. Scalmani, V. Barone, B. Mennucci, 
 G. A. Petersson, H. Nakatsuji, M. Caricato, X. Li, H. P. Hratchian, 
 A. F. Izmaylov, J. Bloino, G. Zheng, J. L. Sonnenberg, M. Hada, 
 M. Ehara, K. Toyota, R. Fukuda, J. Hasegawa, M. Ishida, T. Nakajima, 
 Y. Honda, O. Kitao, H. Nakai, T. Vreven, J. A. Montgomery, Jr., 
 J. E. Peralta, F. Ogliaro, M. Bearpark, J. J. Heyd, E. Brothers, 
 K. N. Kudin, V. N. Staroverov, T. Keith, R. Kobayashi, J. Normand, 
 K. Raghavachari, A. Rendell, J. C. Burant, S. S. Iyengar, J. Tomasi, 
 M. Cossi, N. Rega, J. M. Millam, M. Klene, J. E. Knox, J. B. Cross, 
 V. Bakken, C. Adamo, J. Jaramillo, R. Gomperts, R. E. Stratmann, 
 O. Yazyev, A. J. Austin, R. Cammi, C. Pomelli, J. W. Ochterski, 
 R. L. Martin, K. Morokuma, V. G. Zakrzewski, G. A. Voth, 
 P. Salvador, J. J. Dannenberg, S. Dapprich, A. D. Daniels, 
 O. Farkas, J. B. Foresman, J. V. Ortiz, J. Cioslowski, 
 and D. J. Fox, Gaussian, Inc., Wallingford CT, 2010.
 
 ******************************************
 Gaussian 09:  EM64L-G09RevB.01 12-Aug-2010
                 9-Jan-2012 
 ******************************************
 %NProc=8
 Will use up to    8 processors via shared memory.
 %mem=424000000
 ----------------------------
 #B2PLYP=FULL/6-31G* opt freq
 ----------------------------
 1/18=20,19=15,38=1/1,3;
 2/9=110,12=2,17=6,18=5,40=1/2;
 3/5=1,6=6,7=1,11=9,16=1,25=1,30=1,71=1,74=-47/1,2,3;
 4//1;
 5/5=2,38=5/2;
 8/6=4,10=90/1;
 9/15=2,16=-3/6;
 10/5=1/2;
 6/7=2,8=2,9=2,10=2/1;
 7/12=2/1,2,3,16;
 1/18=20,19=15/3(2);
 2/9=110/2;
 99//99;
 2/9=110/2;
 3/5=1,6=6,7=1,11=9,16=1,25=1,30=1,71=1,74=-47/1,2,3;
 4/5=5,16=3/1;
 5/5=2,38=5/2;
 8/6=4,10=90/1;
 9/15=2,16=-3/6;
 10/5=1/2;
 7/12=2/1,2,3,16;
 1/18=20,19=15/3(-8);
 2/9=110/2;
 6/7=2,8=2,9=2,10=2/1;
 99//99;
 --------------------------------------------------------------
 aniline aniline casno=62533 state=1 config=1 method=59 basis=1
 --------------------------------------------------------------
 Symbolic Z-matrix:
 Charge =  0 Multiplicity = 1
 6                     0.00102   0.92652   0. 
 6                     0.00652   0.21896   1.19518 
 6                     0.00652  -1.161     1.18937 
 6                     0.00662  -1.86505   0. 
 6                     0.00652  -1.161    -1.18937 
 6                     0.00652   0.21896  -1.19518 
 7                     0.05383   2.32181   0. 
 1                     0.01361   0.75224   2.12884 
 1                     0.00812  -1.68913   2.12533 
 1                     0.00694  -2.9384    0. 
 1                     0.00812  -1.68913  -2.12533 
 1                     0.01361   0.75224  -2.12884 
 1                    -0.31477   2.74759  -0.82034 
 1                    -0.31477   2.74759   0.82034 
 

 GradGradGradGradGradGradGradGradGradGradGradGradGradGradGradGradGradGrad
 Berny optimization.
 Initialization pass.
                           ----------------------------
                           !    Initial Parameters    !
                           ! (Angstroms and Degrees)  !
 --------------------------                            --------------------------
 ! Name  Definition              Value          Derivative Info.                !
 --------------------------------------------------------------------------------
 ! R1    R(1,2)                  1.3889         estimate D2E/DX2                !
 ! R2    R(1,6)                  1.3889         estimate D2E/DX2                !
 ! R3    R(1,7)                  1.3963         estimate D2E/DX2                !
 ! R4    R(2,3)                  1.38           estimate D2E/DX2                !
 ! R5    R(2,8)                  1.0752         estimate D2E/DX2                !
 ! R6    R(3,4)                  1.3821         estimate D2E/DX2                !
 ! R7    R(3,9)                  1.0747         estimate D2E/DX2                !
 ! R8    R(4,5)                  1.3821         estimate D2E/DX2                !
 ! R9    R(4,10)                 1.0734         estimate D2E/DX2                !
 ! R10   R(5,6)                  1.38           estimate D2E/DX2                !
 ! R11   R(5,11)                 1.0747         estimate D2E/DX2                !
 ! R12   R(6,12)                 1.0752         estimate D2E/DX2                !
 ! R13   R(7,13)                 0.995          estimate D2E/DX2                !
 ! R14   R(7,14)                 0.995          estimate D2E/DX2                !
 ! A1    A(2,1,6)              118.7465         estimate D2E/DX2                !
 ! A2    A(2,1,7)              120.5915         estimate D2E/DX2                !
 ! A3    A(6,1,7)              120.5915         estimate D2E/DX2                !
 ! A4    A(1,2,3)              120.3844         estimate D2E/DX2                !
 ! A5    A(1,2,8)              119.641          estimate D2E/DX2                !
 ! A6    A(3,2,8)              119.9743         estimate D2E/DX2                !
 ! A7    A(2,3,4)              120.8648         estimate D2E/DX2                !
 ! A8    A(2,3,9)              119.1932         estimate D2E/DX2                !
 ! A9    A(4,3,9)              119.9419         estimate D2E/DX2                !
 ! A10   A(3,4,5)              118.7529         estimate D2E/DX2                !
 ! A11   A(3,4,10)             120.6235         estimate D2E/DX2                !
 ! A12   A(5,4,10)             120.6235         estimate D2E/DX2                !
 ! A13   A(4,5,6)              120.8648         estimate D2E/DX2                !
 ! A14   A(4,5,11)             119.9419         estimate D2E/DX2                !
 ! A15   A(6,5,11)             119.1932         estimate D2E/DX2                !
 ! A16   A(1,6,5)              120.3844         estimate D2E/DX2                !
 ! A17   A(1,6,12)             119.641          estimate D2E/DX2                !
 ! A18   A(5,6,12)             119.9743         estimate D2E/DX2                !
 ! A19   A(1,7,13)             114.4302         estimate D2E/DX2                !
 ! A20   A(1,7,14)             114.4302         estimate D2E/DX2                !
 ! A21   A(13,7,14)            111.061          estimate D2E/DX2                !
 ! D1    D(6,1,2,3)             -0.5165         estimate D2E/DX2                !
 ! D2    D(6,1,2,8)            179.3111         estimate D2E/DX2                !
 ! D3    D(7,1,2,3)           -177.4805         estimate D2E/DX2                !
 ! D4    D(7,1,2,8)              2.3471         estimate D2E/DX2                !
 ! D5    D(2,1,6,5)              0.5165         estimate D2E/DX2                !
 ! D6    D(2,1,6,12)          -179.3111         estimate D2E/DX2                !
 ! D7    D(7,1,6,5)            177.4805         estimate D2E/DX2                !
 ! D8    D(7,1,6,12)            -2.3471         estimate D2E/DX2                !
 ! D9    D(2,1,7,13)          -156.437          estimate D2E/DX2                !
 ! D10   D(2,1,7,14)           -26.6552         estimate D2E/DX2                !
 ! D11   D(6,1,7,13)            26.6552         estimate D2E/DX2                !
 ! D12   D(6,1,7,14)           156.437          estimate D2E/DX2                !
 ! D13   D(1,2,3,4)              0.2678         estimate D2E/DX2                !
 ! D14   D(1,2,3,9)           -179.8344         estimate D2E/DX2                !
 ! D15   D(8,2,3,4)           -179.5592         estimate D2E/DX2                !
 ! D16   D(8,2,3,9)              0.3385         estimate D2E/DX2                !
 ! D17   D(2,3,4,5)             -0.0092         estimate D2E/DX2                !
 ! D18   D(2,3,4,10)           179.9803         estimate D2E/DX2                !
 ! D19   D(9,3,4,5)           -179.9062         estimate D2E/DX2                !
 ! D20   D(9,3,4,10)             0.0833         estimate D2E/DX2                !
 ! D21   D(3,4,5,6)              0.0092         estimate D2E/DX2                !
 ! D22   D(3,4,5,11)           179.9062         estimate D2E/DX2                !
 ! D23   D(10,4,5,6)          -179.9803         estimate D2E/DX2                !
 ! D24   D(10,4,5,11)           -0.0833         estimate D2E/DX2                !
 ! D25   D(4,5,6,1)             -0.2678         estimate D2E/DX2                !
 ! D26   D(4,5,6,12)           179.5592         estimate D2E/DX2                !
 ! D27   D(11,5,6,1)           179.8344         estimate D2E/DX2                !
 ! D28   D(11,5,6,12)           -0.3385         estimate D2E/DX2                !
 --------------------------------------------------------------------------------
 Trust Radius=3.00D-01 FncErr=1.00D-07 GrdErr=1.00D-07
 Number of steps in this run=     73 maximum allowed number of steps=    100.
 GradGradGradGradGradGradGradGradGradGradGradGradGradGradGradGradGradGrad

                          Input orientation:                          
 ---------------------------------------------------------------------
 Center     Atomic      Atomic             Coordinates (Angstroms)
 Number     Number       Type             X           Y           Z
 ---------------------------------------------------------------------
      1          6           0        0.001019    0.926519    0.000000
      2          6           0        0.006521    0.218961    1.195177
      3          6           0        0.006521   -1.160999    1.189365
      4          6           0        0.006618   -1.865047    0.000000
      5          6           0        0.006521   -1.160999   -1.189365
      6          6           0        0.006521    0.218961   -1.195177
      7          7           0        0.053830    2.321805    0.000000
      8          1           0        0.013610    0.752240    2.128837
      9          1           0        0.008118   -1.689129    2.125326
     10          1           0        0.006935   -2.938403    0.000000
     11          1           0        0.008118   -1.689129   -2.125326
     12          1           0        0.013610    0.752240   -2.128837
     13          1           0       -0.314765    2.747586   -0.820342
     14          1           0       -0.314765    2.747586    0.820342
 ---------------------------------------------------------------------
                    Distance matrix (angstroms):
                    1          2          3          4          5
     1  C    0.000000
     2  C    1.388926   0.000000
     3  C    2.402572   1.379972   0.000000
     4  C    2.791572   2.402402   1.382126   0.000000
     5  C    2.402572   2.755055   2.378730   1.382126   0.000000
     6  C    1.388926   2.390354   2.755055   2.402402   1.379972
     7  N    1.396285   2.419223   3.680591   4.187118   3.680591
     8  H    2.135996   1.075248   2.131465   3.373750   3.830274
     9  H    3.370263   2.122731   1.074685   2.132595   3.356501
    10  H    3.864927   3.376003   2.138634   1.073356   2.138634
    11  H    3.370263   3.829693   3.356501   2.132595   1.074685
    12  H    2.135996   3.366527   3.830274   3.373750   2.131465
    13  H    2.022119   3.249536   4.406720   4.696023   3.939091
    14  H    2.022119   2.576368   3.939091   4.696023   4.406720
                    6          7          8          9         10
     6  C    0.000000
     7  N    2.419223   0.000000
     8  H    3.366527   2.645203   0.000000
     9  H    3.829693   4.539459   2.441378   0.000000
    10  H    3.376003   5.260417   4.260615   2.465299   0.000000
    11  H    2.122731   4.539459   4.904917   4.250652   2.465299
    12  H    1.075248   2.645203   4.257674   4.904917   4.260615
    13  H    2.576368   0.995044   3.575876   5.335321   5.753862
    14  H    3.249536   0.995044   2.408609   4.635912   5.753862
                   11         12         13         14
    11  H    0.000000
    12  H    2.441378   0.000000
    13  H    4.635912   2.408609   0.000000
    14  H    5.335321   3.575876   1.640684   0.000000
 Stoichiometry    C6H7N
 Framework group  CS[SG(C2HN),X(C4H6)]
 Deg. of freedom    20
 Full point group                 CS      NOp   2
 Largest Abelian subgroup         CS      NOp   2
 Largest concise Abelian subgroup CS      NOp   2
                         Standard orientation:                         
 ---------------------------------------------------------------------
 Center     Atomic      Atomic             Coordinates (Angstroms)
 Number     Number       Type             X           Y           Z
 ---------------------------------------------------------------------
      1          6           0        0.001019    0.926519    0.000000
      2          6           0        0.006521    0.218961    1.195177
      3          6           0        0.006521   -1.160999    1.189365
      4          6           0        0.006618   -1.865047    0.000000
      5          6           0        0.006521   -1.160999   -1.189365
      6          6           0        0.006521    0.218961   -1.195177
      7          7           0        0.053830    2.321805    0.000000
      8          1           0        0.013610    0.752240    2.128837
      9          1           0        0.008118   -1.689129    2.125326
     10          1           0        0.006935   -2.938403    0.000000
     11          1           0        0.008118   -1.689129   -2.125326
     12          1           0        0.013610    0.752240   -2.128837
     13          1           0       -0.314765    2.747586   -0.820342
     14          1           0       -0.314765    2.747586    0.820342
 ---------------------------------------------------------------------
 Rotational constants (GHZ):      5.7384913      2.6311519      1.8070892
 Standard basis: 6-31G(d) (6D, 7F)
 There are    71 symmetry adapted basis functions of A'  symmetry.
 There are    48 symmetry adapted basis functions of A"  symmetry.
 Integral buffers will be    131072 words long.
 Raffenetti 1 integral format.
 Two-electron integral symmetry is turned on.
   119 basis functions,   224 primitive gaussians,   119 cartesian basis functions
    25 alpha electrons       25 beta electrons
       nuclear repulsion energy       273.6521708183 Hartrees.
 NAtoms=   14 NActive=   14 NUniq=    9 SFac= 2.42D+00 NAtFMM=   50 NAOKFM=F Big=F
 One-electron integrals computed using PRISM.
 NBasis=   119 RedAO= T  NBF=    71    48
 NBsUse=   119 1.00D-06 NBFU=    71    48
 Harris functional with IExCor=  419 diagonalized for initial guess.
 ExpMin= 1.61D-01 ExpMax= 4.17D+03 ExpMxC= 6.27D+02 IAcc=1 IRadAn=         1 AccDes= 0.00D+00
 HarFok:  IExCor=  419 AccDes= 0.00D+00 IRadAn=         1 IDoV= 1
 ScaDFX=  1.000000  1.000000  1.000000  1.000000
 FoFCou: FMM=F IPFlag=           0 FMFlag=      100000 FMFlg1=           0
         NFxFlg=           0 DoJE=T BraDBF=F KetDBF=T FulRan=T
         Omega=  0.000000  0.000000  1.000000  0.000000  0.000000 ICntrl=     500 IOpCl=  0
         NMat0=    1 NMatS0=    1 NMatT0=    0 NMatD0=    1 NMtDS0=    0 NMtDT0=    0
         I1Cent=           4 NGrid=           0.
 Petite list used in FoFCou.
 Initial guess orbital symmetries:
       Occupied  (A') (A') (A") (A') (A') (A") (A') (A') (A') (A")
                 (A') (A") (A') (A') (A") (A') (A") (A') (A") (A')
                 (A') (A") (A') (A") (A')
       Virtual   (A") (A') (A') (A') (A') (A") (A') (A") (A") (A')
                 (A') (A") (A') (A") (A') (A") (A') (A') (A') (A")
                 (A') (A") (A') (A") (A') (A') (A") (A") (A') (A')
                 (A') (A') (A') (A") (A') (A") (A") (A') (A') (A")
                 (A') (A") (A') (A") (A') (A") (A') (A") (A") (A')
                 (A') (A') (A") (A') (A") (A") (A') (A') (A") (A')
                 (A") (A') (A') (A") (A') (A') (A") (A') (A") (A")
                 (A') (A') (A") (A') (A') (A") (A') (A") (A') (A")
                 (A') (A") (A') (A") (A') (A") (A') (A') (A') (A")
                 (A') (A") (A') (A')
 The electronic state of the initial guess is 1-A'.
 Requested convergence on RMS density matrix=1.00D-08 within 128 cycles.
 Requested convergence on MAX density matrix=1.00D-06.
 Requested convergence on             energy=1.00D-06.
 No special actions if energy rises.
 Keep R1 ints in memory in canonical form, NReq=26611363.
 Integral accuracy reduced to 1.0D-05 until final iterations.
 Initial convergence to 1.0D-05 achieved.  Increase integral accuracy.
 SCF Done:  E(RB2PLYP) =  -286.966866362     A.U. after   13 cycles
             Convg  =    0.5113D-08             -V/T =  2.0056
 Range of M.O.s used for correlation:     1   119
 NBasis=   119 NAE=    25 NBE=    25 NFC=     0 NFV=     0
 NROrb=    119 NOA=    25 NOB=    25 NVA=    94 NVB=    94
 DoSCS=T DFT=T ScalE2(SS,OS)=  0.270000  0.270000
 Fully direct method using O(ONN) memory.
 JobTyp=1 Pass  1:  I=   1 to  25 NPSUse=  8 ParTrn=T ParDer=T DoDerP=T.
 Spin components of T(2) and E(2):
     alpha-alpha T2 =       0.7030703252D-01 E2=     -0.4180487240D-01
     alpha-beta  T2 =       0.3672615300D+00 E2=     -0.2304657704D+00
     beta-beta   T2 =       0.7030703252D-01 E2=     -0.4180487240D-01
 E2(B2PLYP) =    -0.3140755152D+00 E(B2PLYP) =    -0.28728094187742D+03
          IDoAtm=11111111111111
          Differentiating once with respect to electric field.
                with respect to dipole field.
          Differentiating once with respect to nuclear coordinates.
          Keep R1 ints in memory in canonical form, NReq=26320913.
          There are     1 degrees of freedom in the 1st order CPHF.  IDoFFX=0.
 LinEq1:  Iter=  0 NonCon=     1 RMS=2.01D-03 Max=3.84D-02
 AX will form     1 AO Fock derivatives at one time.
 LinEq1:  Iter=  1 NonCon=     1 RMS=7.10D-04 Max=8.90D-03
 LinEq1:  Iter=  2 NonCon=     1 RMS=1.78D-04 Max=3.57D-03
 LinEq1:  Iter=  3 NonCon=     1 RMS=8.72D-05 Max=1.62D-03
 LinEq1:  Iter=  4 NonCon=     1 RMS=3.29D-05 Max=4.87D-04
 LinEq1:  Iter=  5 NonCon=     1 RMS=1.31D-05 Max=4.19D-04
 LinEq1:  Iter=  6 NonCon=     1 RMS=5.40D-06 Max=1.00D-04
 LinEq1:  Iter=  7 NonCon=     1 RMS=2.11D-06 Max=4.75D-05
 LinEq1:  Iter=  8 NonCon=     1 RMS=1.26D-06 Max=2.37D-05
 LinEq1:  Iter=  9 NonCon=     1 RMS=2.80D-07 Max=3.17D-06
 LinEq1:  Iter= 10 NonCon=     1 RMS=9.00D-08 Max=1.21D-06
 LinEq1:  Iter= 11 NonCon=     1 RMS=3.82D-08 Max=4.43D-07
 LinEq1:  Iter= 12 NonCon=     1 RMS=7.26D-09 Max=7.49D-08
 LinEq1:  Iter= 13 NonCon=     1 RMS=2.09D-09 Max=2.66D-08
 LinEq1:  Iter= 14 NonCon=     1 RMS=3.46D-10 Max=4.04D-09
 LinEq1:  Iter= 15 NonCon=     0 RMS=6.59D-11 Max=7.49D-10
 Linear equations converged to 1.000D-10 1.000D-09 after    15 iterations.
 End of Minotr Frequency-dependent properties file   721 does not exist.
 End of Minotr Frequency-dependent properties file   722 does not exist.

 **********************************************************************

            Population analysis using the SCF density.

 **********************************************************************

 Orbital symmetries:
       Occupied  (A') (A') (A') (A") (A") (A') (A') (A') (A') (A")
                 (A') (A") (A') (A') (A") (A') (A') (A") (A") (A')
                 (A') (A") (A') (A") (A')
       Virtual   (A") (A') (A') (A') (A") (A') (A") (A') (A") (A')
                 (A') (A") (A') (A") (A') (A") (A') (A') (A') (A")
                 (A') (A") (A') (A') (A') (A") (A") (A") (A') (A')
                 (A') (A') (A") (A') (A') (A") (A") (A') (A') (A")
                 (A") (A') (A') (A") (A') (A") (A') (A") (A") (A')
                 (A') (A') (A") (A") (A') (A") (A') (A') (A") (A')
                 (A') (A") (A') (A') (A") (A') (A') (A") (A") (A')
                 (A") (A') (A") (A') (A') (A") (A') (A") (A') (A")
                 (A') (A') (A") (A") (A') (A") (A') (A') (A') (A")
                 (A') (A") (A') (A')
 The electronic state is 1-A'.
 Alpha  occ. eigenvalues --  -14.84486 -10.65728 -10.61536 -10.61533 -10.60837
 Alpha  occ. eigenvalues --  -10.60836 -10.60384  -1.04433  -0.95557  -0.85198
 Alpha  occ. eigenvalues --   -0.83090  -0.69985  -0.68311  -0.59779  -0.58016
 Alpha  occ. eigenvalues --   -0.54681  -0.49712  -0.49221  -0.48159  -0.44083
 Alpha  occ. eigenvalues --   -0.41379  -0.39643  -0.36134  -0.28029  -0.23747
 Alpha virt. eigenvalues --    0.06938   0.08582   0.14543   0.16545   0.18904
 Alpha virt. eigenvalues --    0.22832   0.23182   0.25952   0.26411   0.26811
 Alpha virt. eigenvalues --    0.34663   0.38859   0.40618   0.43341   0.44120
 Alpha virt. eigenvalues --    0.55088   0.62331   0.63505   0.63783   0.67369
 Alpha virt. eigenvalues --    0.69567   0.69916   0.70074   0.70739   0.71984
 Alpha virt. eigenvalues --    0.72312   0.73628   0.77113   0.78107   0.82390
 Alpha virt. eigenvalues --    0.86819   0.90560   0.95967   0.96097   0.97031
 Alpha virt. eigenvalues --    0.97498   1.02559   1.03550   1.04383   1.06293
 Alpha virt. eigenvalues --    1.08231   1.09055   1.13285   1.15399   1.21534
 Alpha virt. eigenvalues --    1.23549   1.30320   1.31141   1.37711   1.43453
 Alpha virt. eigenvalues --    1.49740   1.56338   1.56874   1.61010   1.61891
 Alpha virt. eigenvalues --    1.64035   1.65698   1.88841   1.92589   1.97698
 Alpha virt. eigenvalues --    2.02364   2.02565   2.07691   2.11491   2.13989
 Alpha virt. eigenvalues --    2.22359   2.24366   2.25249   2.28970   2.33827
 Alpha virt. eigenvalues --    2.34578   2.40451   2.43360   2.47018   2.61917
 Alpha virt. eigenvalues --    2.61989   2.63725   2.73369   2.74117   2.84685
 Alpha virt. eigenvalues --    2.89633   2.90789   2.91185   3.00495   3.04348
 Alpha virt. eigenvalues --    3.26214   3.62826   4.02173   4.28541   4.30378
 Alpha virt. eigenvalues --    4.31665   4.51686   4.54759   4.89092
          Condensed to atoms (all electrons):
              1          2          3          4          5          6
     1  C    4.453067   0.571618  -0.021784  -0.034077  -0.021784   0.571618
     2  C    0.571618   4.950282   0.563717  -0.050813  -0.040348  -0.057165
     3  C   -0.021784   0.563717   4.818106   0.567876  -0.034872  -0.040348
     4  C   -0.034077  -0.050813   0.567876   4.869231   0.567876  -0.050813
     5  C   -0.021784  -0.040348  -0.034872   0.567876   4.818106   0.563717
     6  C    0.571618  -0.057165  -0.040348  -0.050813   0.563717   4.950282
     7  N    0.314066  -0.070235   0.003964   0.000587   0.003964  -0.070235
     8  H   -0.042956   0.364942  -0.035759   0.004085   0.000295   0.004947
     9  H    0.003083  -0.037178   0.369606  -0.038589   0.004121   0.000753
    10  H    0.000636   0.004006  -0.038927   0.373052  -0.038927   0.004006
    11  H    0.003083   0.000753   0.004121  -0.038589   0.369606  -0.037178
    12  H   -0.042956   0.004947   0.000295   0.004085  -0.035759   0.364942
    13  H   -0.025323   0.005209  -0.000146   0.000005  -0.000011  -0.007657
    14  H   -0.025323  -0.007657  -0.000011   0.000005  -0.000146   0.005209
              7          8          9         10         11         12
     1  C    0.314066  -0.042956   0.003083   0.000636   0.003083  -0.042956
     2  C   -0.070235   0.364942  -0.037178   0.004006   0.000753   0.004947
     3  C    0.003964  -0.035759   0.369606  -0.038927   0.004121   0.000295
     4  C    0.000587   0.004085  -0.038589   0.373052  -0.038589   0.004085
     5  C    0.003964   0.000295   0.004121  -0.038927   0.369606  -0.035759
     6  C   -0.070235   0.004947   0.000753   0.004006  -0.037178   0.364942
     7  N    7.012305  -0.006036  -0.000117   0.000005  -0.000117  -0.006036
     8  H   -0.006036   0.564541  -0.004752  -0.000164   0.000016  -0.000169
     9  H   -0.000117  -0.004752   0.552956  -0.004183  -0.000185   0.000016
    10  H    0.000005  -0.000164  -0.004183   0.554126  -0.004183  -0.000164
    11  H   -0.000117   0.000016  -0.000185  -0.004183   0.552956  -0.004752
    12  H   -0.006036  -0.000169   0.000016  -0.000164  -0.004752   0.564541
    13  H    0.324236  -0.000098   0.000004   0.000000  -0.000008   0.004646
    14  H    0.324236   0.004646  -0.000008   0.000000   0.000004  -0.000098
             13         14
     1  C   -0.025323  -0.025323
     2  C    0.005209  -0.007657
     3  C   -0.000146  -0.000011
     4  C    0.000005   0.000005
     5  C   -0.000011  -0.000146
     6  C   -0.007657   0.005209
     7  N    0.324236   0.324236
     8  H   -0.000098   0.004646
     9  H    0.000004  -0.000008
    10  H    0.000000   0.000000
    11  H   -0.000008   0.000004
    12  H    0.004646  -0.000098
    13  H    0.392555  -0.028774
    14  H   -0.028774   0.392555
 Mulliken atomic charges:
              1
     1  C    0.297032
     2  C   -0.202079
     3  C   -0.155838
     4  C   -0.173921
     5  C   -0.155838
     6  C   -0.202079
     7  N   -0.830587
     8  H    0.146462
     9  H    0.154471
    10  H    0.150716
    11  H    0.154471
    12  H    0.146462
    13  H    0.335363
    14  H    0.335363
 Sum of Mulliken atomic charges =   0.00000
 Mulliken charges with hydrogens summed into heavy atoms:
              1
     1  C    0.297032
     2  C   -0.055617
     3  C   -0.001367
     4  C   -0.023204
     5  C   -0.001367
     6  C   -0.055617
     7  N   -0.159860
 Sum of Mulliken charges with hydrogens summed into heavy atoms =   0.00000
 Electronic spatial extent (au):  <R**2>=            675.3142
 Charge=              0.0000 electrons
 Dipole moment (field-independent basis, Debye):
    X=             -1.2131    Y=              1.0234    Z=              0.0000  Tot=              1.5871
 Quadrupole moment (field-independent basis, Debye-Ang):
   XX=            -45.4834   YY=            -34.8909   ZZ=            -36.0992
   XY=             -3.7160   XZ=              0.0000   YZ=              0.0000
 Traceless Quadrupole moment (field-independent basis, Debye-Ang):
   XX=             -6.6589   YY=              3.9336   ZZ=              2.7253
   XY=             -3.7160   XZ=              0.0000   YZ=              0.0000
 Octapole moment (field-independent basis, Debye-Ang**2):
  XXX=             -1.1249  YYY=             13.7812  ZZZ=              0.0000  XYY=            -10.6940
  XXY=              2.7415  XXZ=              0.0000  XZZ=             -0.7194  YZZ=              5.0456
  YYZ=              0.0000  XYZ=              0.0000
 Hexadecapole moment (field-independent basis, Debye-Ang**3):
 XXXX=            -47.7563 YYYY=           -487.8130 ZZZZ=           -272.9266 XXXY=             -0.6804
 XXXZ=              0.0000 YYYX=            -29.1627 YYYZ=              0.0000 ZZZX=              0.0000
 ZZZY=              0.0000 XXYY=           -110.1254 XXZZ=            -62.4352 YYZZ=           -119.0669
 XXYZ=              0.0000 YYXZ=              0.0000 ZZXY=             -1.8222
 N-N= 2.736521708183D+02 E-N=-1.214192086677D+03  KE= 2.853711761914D+02
 Symmetry A'   KE= 2.024336402642D+02
 Symmetry A"   KE= 8.293753592725D+01
 Calling FoFJK, ICntrl=      2127 FMM=F ISym2X=1 I1Cent= 0 IOpClX= 0 NMat=1 NMatS=1 NMatT=0.
 ***** Axes restored to original set *****
 -------------------------------------------------------------------
 Center     Atomic                   Forces (Hartrees/Bohr)
 Number     Number              X              Y              Z
 -------------------------------------------------------------------
      1        6          -0.000119154    0.010231915    0.000000000
      2        6          -0.000169516    0.001455954    0.004757507
      3        6           0.000276880   -0.002936288    0.005323267
      4        6          -0.000109237   -0.004820270    0.000000000
      5        6           0.000276880   -0.002936288   -0.005323267
      6        6          -0.000169516    0.001455954   -0.004757507
      7        7           0.011233137   -0.008505736    0.000000000
      8        1          -0.000047104    0.004419914    0.007169245
      9        1          -0.000030758   -0.003901186    0.007226176
     10        1          -0.000043220   -0.008233345    0.000000000
     11        1          -0.000030758   -0.003901186   -0.007226176
     12        1          -0.000047104    0.004419914   -0.007169245
     13        1          -0.005510265    0.006625324   -0.012897500
     14        1          -0.005510265    0.006625324    0.012897500
 -------------------------------------------------------------------
 Cartesian Forces:  Max     0.012897500 RMS     0.005511599

 GradGradGradGradGradGradGradGradGradGradGradGradGradGradGradGradGradGrad
 Berny optimization.
 Internal  Forces:  Max     0.015509364 RMS     0.005637975
 Search for a local minimum.
 Step number   1 out of a maximum of   73
 All quantities printed in internal units (Hartrees-Bohrs-Radians)
 Mixed Optimization -- RFO/linear search
 Second derivative matrix not updated -- first step.
 ITU=  0
     Eigenvalues ---    0.01741   0.02092   0.02249   0.02288   0.02298
     Eigenvalues ---    0.02324   0.02325   0.02333   0.02340   0.02342
     Eigenvalues ---    0.04578   0.16000   0.16000   0.16000   0.16000
     Eigenvalues ---    0.16000   0.16000   0.16000   0.22000   0.22000
     Eigenvalues ---    0.23468   0.24963   0.36575   0.36575   0.36644
     Eigenvalues ---    0.36644   0.36809   0.43621   0.43790   0.46242
     Eigenvalues ---    0.47826   0.48178   0.48570   0.48570   0.48806
     Eigenvalues ---    0.49107
 RFO step:  Lambda=-4.33389757D-03 EMin= 1.74092158D-02
 Linear search not attempted -- first point.
 Iteration  1 RMS(Cart)=  0.02041309 RMS(Int)=  0.00002611
 Iteration  2 RMS(Cart)=  0.00002860 RMS(Int)=  0.00000204
 Iteration  3 RMS(Cart)=  0.00000000 RMS(Int)=  0.00000204
 ClnCor:  largest displacement from symmetrization is 1.76D-12 for atom    14.
 Variable       Old X    -DE/DX   Delta X   Delta X   Delta X     New X
                                 (Linear)    (Quad)   (Total)
    R1        2.62469   0.01421   0.00000   0.02962   0.02962   2.65431
    R2        2.62469   0.01421   0.00000   0.02962   0.02962   2.65431
    R3        2.63860   0.00475   0.00000   0.01018   0.01018   2.64877
    R4        2.60777   0.01336   0.00000   0.02697   0.02697   2.63474
    R5        2.03192   0.00842   0.00000   0.02274   0.02274   2.05467
    R6        2.61184   0.01399   0.00000   0.02849   0.02848   2.64032
    R7        2.03086   0.00821   0.00000   0.02214   0.02214   2.05300
    R8        2.61184   0.01399   0.00000   0.02849   0.02848   2.64032
    R9        2.02835   0.00823   0.00000   0.02211   0.02211   2.05046
   R10        2.60777   0.01336   0.00000   0.02697   0.02697   2.63474
   R11        2.03086   0.00821   0.00000   0.02214   0.02214   2.05300
   R12        2.03192   0.00842   0.00000   0.02274   0.02274   2.05467
   R13        1.88036   0.01551   0.00000   0.03165   0.03165   1.91201
   R14        1.88036   0.01551   0.00000   0.03165   0.03165   1.91201
    A1        2.07252  -0.00011   0.00000  -0.00053  -0.00053   2.07199
    A2        2.10472   0.00006   0.00000   0.00025   0.00025   2.10497
    A3        2.10472   0.00006   0.00000   0.00025   0.00025   2.10497
    A4        2.10110   0.00020   0.00000   0.00083   0.00083   2.10194
    A5        2.08813  -0.00039   0.00000  -0.00216  -0.00216   2.08597
    A6        2.09395   0.00019   0.00000   0.00133   0.00133   2.09527
    A7        2.10949  -0.00046   0.00000  -0.00203  -0.00204   2.10745
    A8        2.08031   0.00008   0.00000   0.00007   0.00007   2.08038
    A9        2.09338   0.00039   0.00000   0.00197   0.00197   2.09535
   A10        2.07263   0.00065   0.00000   0.00296   0.00295   2.07558
   A11        2.10528  -0.00032   0.00000  -0.00148  -0.00148   2.10380
   A12        2.10528  -0.00032   0.00000  -0.00148  -0.00148   2.10380
   A13        2.10949  -0.00046   0.00000  -0.00203  -0.00204   2.10745
   A14        2.09338   0.00039   0.00000   0.00197   0.00197   2.09535
   A15        2.08031   0.00008   0.00000   0.00007   0.00007   2.08038
   A16        2.10110   0.00020   0.00000   0.00083   0.00083   2.10194
   A17        2.08813  -0.00039   0.00000  -0.00216  -0.00216   2.08597
   A18        2.09395   0.00019   0.00000   0.00133   0.00133   2.09527
   A19        1.99718   0.00008   0.00000   0.00169   0.00168   1.99886
   A20        1.99718   0.00008   0.00000   0.00169   0.00168   1.99886
   A21        1.93838   0.00013   0.00000   0.00259   0.00258   1.94096
    D1       -0.00901   0.00010   0.00000   0.00351   0.00351  -0.00550
    D2        3.12957   0.00008   0.00000   0.00274   0.00274   3.13231
    D3       -3.09762   0.00010   0.00000   0.00392   0.00392  -3.09370
    D4        0.04097   0.00008   0.00000   0.00314   0.00315   0.04411
    D5        0.00901  -0.00010   0.00000  -0.00351  -0.00351   0.00550
    D6       -3.12957  -0.00008   0.00000  -0.00274  -0.00274  -3.13231
    D7        3.09762  -0.00010   0.00000  -0.00392  -0.00392   3.09370
    D8       -0.04097  -0.00008   0.00000  -0.00314  -0.00315  -0.04411
    D9       -2.73034  -0.00018   0.00000  -0.00375  -0.00375  -2.73410
   D10       -0.46522   0.00017   0.00000   0.00332   0.00332  -0.46190
   D11        0.46522  -0.00017   0.00000  -0.00332  -0.00332   0.46190
   D12        2.73034   0.00018   0.00000   0.00375   0.00375   2.73410
   D13        0.00467  -0.00007   0.00000  -0.00247  -0.00247   0.00221
   D14       -3.13870   0.00000   0.00000   0.00007   0.00007  -3.13863
   D15       -3.13390  -0.00005   0.00000  -0.00169  -0.00169  -3.13559
   D16        0.00591   0.00002   0.00000   0.00085   0.00085   0.00676
   D17       -0.00016   0.00004   0.00000   0.00133   0.00133   0.00117
   D18        3.14125   0.00005   0.00000   0.00199   0.00199  -3.13994
   D19       -3.13996  -0.00003   0.00000  -0.00122  -0.00122  -3.14118
   D20        0.00145  -0.00002   0.00000  -0.00056  -0.00056   0.00089
   D21        0.00016  -0.00004   0.00000  -0.00133  -0.00133  -0.00117
   D22        3.13996   0.00003   0.00000   0.00122   0.00122   3.14118
   D23       -3.14125  -0.00005   0.00000  -0.00199  -0.00199   3.13994
   D24       -0.00145   0.00002   0.00000   0.00056   0.00056  -0.00089
   D25       -0.00467   0.00007   0.00000   0.00247   0.00247  -0.00221
   D26        3.13390   0.00005   0.00000   0.00169   0.00169   3.13559
   D27        3.13870   0.00000   0.00000  -0.00007  -0.00007   3.13863
   D28       -0.00591  -0.00002   0.00000  -0.00085  -0.00085  -0.00676
         Item               Value     Threshold  Converged?
 Maximum Force            0.015509     0.000450     NO 
 RMS     Force            0.005638     0.000300     NO 
 Maximum Displacement     0.055275     0.001800     NO 
 RMS     Displacement     0.020415     0.001200     NO 
 Predicted change in Energy=-2.187919D-03
 GradGradGradGradGradGradGradGradGradGradGradGradGradGradGradGradGradGrad

                          Input orientation:                          
 ---------------------------------------------------------------------
 Center     Atomic      Atomic             Coordinates (Angstroms)
 Number     Number       Type             X           Y           Z
 ---------------------------------------------------------------------
      1          6           0        0.000629    0.937454    0.000000
      2          6           0        0.005315    0.221586    1.208478
      3          6           0        0.007828   -1.172649    1.203386
      4          6           0        0.008392   -1.882598    0.000000
      5          6           0        0.007828   -1.172649   -1.203386
      6          6           0        0.005315    0.221586   -1.208478
      7          7           0        0.055843    2.338036    0.000000
      8          1           0        0.010554    0.762625    2.151576
      9          1           0        0.008640   -1.706074    2.149815
     10          1           0        0.008808   -2.967653    0.000000
     11          1           0        0.008640   -1.706074   -2.149815
     12          1           0        0.010554    0.762625   -2.151576
     13          1           0       -0.314968    2.772989   -0.834888
     14          1           0       -0.314968    2.772989    0.834888
 ---------------------------------------------------------------------
                    Distance matrix (angstroms):
                    1          2          3          4          5
     1  C    0.000000
     2  C    1.404603   0.000000
     3  C    2.429141   1.394247   0.000000
     4  C    2.820063   2.426525   1.397200   0.000000
     5  C    2.429141   2.785855   2.406772   1.397200   0.000000
     6  C    1.404603   2.416957   2.785855   2.426525   1.394247
     7  N    1.401670   2.437690   3.711516   4.220901   3.711516
     8  H    2.158690   1.087283   2.155077   3.409764   3.873121
     9  H    3.407347   2.145227   1.086403   2.157050   3.395365
    10  H    3.905116   3.410525   2.161060   1.085055   2.161060
    11  H    3.407347   3.872211   3.395365   2.157050   1.086403
    12  H    2.158690   3.403339   3.873121   3.409764   2.155077
    13  H    2.041036   3.284446   4.452732   4.740896   3.975934
    14  H    2.041036   2.598424   3.975934   4.740896   4.452732
                    6          7          8          9         10
     6  C    0.000000
     7  N    2.437690   0.000000
     8  H    3.403339   2.667068   0.000000
     9  H    3.872211   4.580258   2.468701   0.000000
    10  H    3.410525   5.305897   4.306305   2.492647   0.000000
    11  H    2.145227   4.580258   4.959481   4.299630   2.492647
    12  H    1.087283   2.667068   4.303153   4.959481   4.306305
    13  H    2.598424   1.011792   3.614761   5.392141   5.810064
    14  H    3.284446   1.011792   2.425117   4.679291   5.810064
                   11         12         13         14
    11  H    0.000000
    12  H    2.468701   0.000000
    13  H    4.679291   2.425117   0.000000
    14  H    5.392141   3.614761   1.669777   0.000000
 Stoichiometry    C6H7N
 Framework group  CS[SG(C2HN),X(C4H6)]
 Deg. of freedom    20
 Full point group                 CS      NOp   2
 Largest Abelian subgroup         CS      NOp   2
 Largest concise Abelian subgroup CS      NOp   2
                         Standard orientation:                         
 ---------------------------------------------------------------------
 Center     Atomic      Atomic             Coordinates (Angstroms)
 Number     Number       Type             X           Y           Z
 ---------------------------------------------------------------------
      1          6           0        0.001920    0.937971    0.000000
      2          6           0        0.005315    0.222096    1.208478
      3          6           0        0.005315   -1.172142    1.203386
      4          6           0        0.004599   -1.882091    0.000000
      5          6           0        0.005315   -1.172142   -1.203386
      6          6           0        0.005315    0.222096   -1.208478
      7          7           0        0.059658    2.338451    0.000000
      8          1           0        0.011530    0.763125    2.151576
      9          1           0        0.005166   -1.705567    2.149815
     10          1           0        0.003060   -2.967144    0.000000
     11          1           0        0.005166   -1.705567   -2.149815
     12          1           0        0.011530    0.763125   -2.151576
     13          1           0       -0.310368    2.774072   -0.834888
     14          1           0       -0.310368    2.774072    0.834888
 ---------------------------------------------------------------------
 Rotational constants (GHZ):      5.6091203      2.5856526      1.7728250
 Standard basis: 6-31G(d) (6D, 7F)
 There are    71 symmetry adapted basis functions of A'  symmetry.
 There are    48 symmetry adapted basis functions of A"  symmetry.
 Integral buffers will be    131072 words long.
 Raffenetti 1 integral format.
 Two-electron integral symmetry is turned on.
   119 basis functions,   224 primitive gaussians,   119 cartesian basis functions
    25 alpha electrons       25 beta electrons
       nuclear repulsion energy       270.9059392323 Hartrees.
 NAtoms=   14 NActive=   14 NUniq=    9 SFac= 2.42D+00 NAtFMM=   50 NAOKFM=F Big=F
 One-electron integrals computed using PRISM.
 NBasis=   119 RedAO= T  NBF=    71    48
 NBsUse=   119 1.00D-06 NBFU=    71    48
 Initial guess read from the read-write file.
 B after Tr=     0.000000    0.000000    0.000000
         Rot=    1.000000    0.000000    0.000000    0.000000 Ang=   0.00 deg.
 Initial guess orbital symmetries:
       Occupied  (A') (A') (A') (A") (A") (A') (A') (A') (A') (A")
                 (A') (A") (A') (A') (A") (A') (A') (A") (A") (A')
                 (A') (A") (A') (A") (A')
       Virtual   (A") (A') (A') (A') (A") (A') (A") (A') (A") (A')
                 (A') (A") (A') (A") (A') (A") (A') (A') (A') (A")
                 (A') (A") (A') (A') (A') (A") (A") (A") (A') (A')
                 (A') (A') (A") (A') (A') (A") (A") (A') (A') (A")
                 (A") (A') (A') (A") (A') (A") (A') (A") (A") (A')
                 (A') (A') (A") (A") (A') (A") (A') (A') (A") (A')
                 (A') (A") (A') (A') (A") (A') (A') (A") (A") (A')
                 (A") (A') (A") (A') (A') (A") (A') (A") (A') (A")
                 (A') (A') (A") (A") (A') (A") (A') (A') (A') (A")
                 (A') (A") (A') (A')
 Harris functional with IExCor=  419 diagonalized for initial guess.
 ExpMin= 1.61D-01 ExpMax= 4.17D+03 ExpMxC= 6.27D+02 IAcc=1 IRadAn=         1 AccDes= 0.00D+00
 HarFok:  IExCor=  419 AccDes= 0.00D+00 IRadAn=         1 IDoV= 1
 ScaDFX=  1.000000  1.000000  1.000000  1.000000
 FoFCou: FMM=F IPFlag=           0 FMFlag=      100000 FMFlg1=           0
         NFxFlg=           0 DoJE=T BraDBF=F KetDBF=T FulRan=T
         Omega=  0.000000  0.000000  1.000000  0.000000  0.000000 ICntrl=     500 IOpCl=  0
         NMat0=    1 NMatS0=    1 NMatT0=    0 NMatD0=    1 NMtDS0=    0 NMtDT0=    0
         I1Cent=           4 NGrid=           0.
 Petite list used in FoFCou.
 Requested convergence on RMS density matrix=1.00D-08 within 128 cycles.
 Requested convergence on MAX density matrix=1.00D-06.
 Requested convergence on             energy=1.00D-06.
 No special actions if energy rises.
 Keep R1 ints in memory in canonical form, NReq=26611363.
 Integral accuracy reduced to 1.0D-05 until final iterations.
 Initial convergence to 1.0D-05 achieved.  Increase integral accuracy.
 SCF Done:  E(RB2PLYP) =  -286.966939560     A.U. after   11 cycles
             Convg  =    0.4891D-08             -V/T =  2.0070
 Range of M.O.s used for correlation:     1   119
 NBasis=   119 NAE=    25 NBE=    25 NFC=     0 NFV=     0
 NROrb=    119 NOA=    25 NOB=    25 NVA=    94 NVB=    94
 DoSCS=T DFT=T ScalE2(SS,OS)=  0.270000  0.270000
 Fully direct method using O(ONN) memory.
 JobTyp=1 Pass  1:  I=   1 to  25 NPSUse=  8 ParTrn=T ParDer=T DoDerP=T.
 Spin components of T(2) and E(2):
     alpha-alpha T2 =       0.7162696563D-01 E2=     -0.4194380867D-01
     alpha-beta  T2 =       0.3761755029D+00 E2=     -0.2320891398D+00
     beta-beta   T2 =       0.7162696563D-01 E2=     -0.4194380867D-01
 E2(B2PLYP) =    -0.3159767571D+00 E(B2PLYP) =    -0.28728291631733D+03
          IDoAtm=11111111111111
          Differentiating once with respect to electric field.
                with respect to dipole field.
          Differentiating once with respect to nuclear coordinates.
          Keep R1 ints in memory in canonical form, NReq=26320913.
          There are     1 degrees of freedom in the 1st order CPHF.  IDoFFX=0.
 LinEq1:  Iter=  0 NonCon=     1 RMS=2.05D-03 Max=3.88D-02
 AX will form     1 AO Fock derivatives at one time.
 LinEq1:  Iter=  1 NonCon=     1 RMS=7.38D-04 Max=9.08D-03
 LinEq1:  Iter=  2 NonCon=     1 RMS=1.87D-04 Max=3.71D-03
 LinEq1:  Iter=  3 NonCon=     1 RMS=9.19D-05 Max=1.67D-03
 LinEq1:  Iter=  4 NonCon=     1 RMS=3.54D-05 Max=5.21D-04
 LinEq1:  Iter=  5 NonCon=     1 RMS=1.44D-05 Max=4.66D-04
 LinEq1:  Iter=  6 NonCon=     1 RMS=6.09D-06 Max=1.08D-04
 LinEq1:  Iter=  7 NonCon=     1 RMS=2.35D-06 Max=5.19D-05
 LinEq1:  Iter=  8 NonCon=     1 RMS=1.44D-06 Max=2.74D-05
 LinEq1:  Iter=  9 NonCon=     1 RMS=3.19D-07 Max=3.55D-06
 LinEq1:  Iter= 10 NonCon=     1 RMS=1.03D-07 Max=1.46D-06
 LinEq1:  Iter= 11 NonCon=     1 RMS=4.55D-08 Max=5.70D-07
 LinEq1:  Iter= 12 NonCon=     1 RMS=8.84D-09 Max=9.41D-08
 LinEq1:  Iter= 13 NonCon=     1 RMS=2.51D-09 Max=3.15D-08
 LinEq1:  Iter= 14 NonCon=     1 RMS=4.07D-10 Max=5.00D-09
 LinEq1:  Iter= 15 NonCon=     0 RMS=7.73D-11 Max=9.45D-10
 Linear equations converged to 1.000D-10 1.000D-09 after    15 iterations.
 End of Minotr Frequency-dependent properties file   721 does not exist.
 End of Minotr Frequency-dependent properties file   722 does not exist.
 Calling FoFJK, ICntrl=      2127 FMM=F ISym2X=1 I1Cent= 0 IOpClX= 0 NMat=1 NMatS=1 NMatT=0.
 ***** Axes restored to original set *****
 -------------------------------------------------------------------
 Center     Atomic                   Forces (Hartrees/Bohr)
 Number     Number              X              Y              Z
 -------------------------------------------------------------------
      1        6          -0.000486988    0.000332930    0.000000000
      2        6          -0.000021436   -0.000800587   -0.000631593
      3        6           0.000110386    0.000481644   -0.000960967
      4        6          -0.000035709    0.001211061    0.000000000
      5        6           0.000110386    0.000481644    0.000960967
      6        6          -0.000021436   -0.000800587    0.000631593
      7        7           0.001406730   -0.001229623    0.000000000
      8        1          -0.000068741   -0.000050855   -0.000375733
      9        1          -0.000017764    0.000238274   -0.000429176
     10        1           0.000006275    0.000371197    0.000000000
     11        1          -0.000017764    0.000238274    0.000429176
     12        1          -0.000068741   -0.000050855    0.000375733
     13        1          -0.000447599   -0.000211258    0.000274518
     14        1          -0.000447599   -0.000211258   -0.000274518
 -------------------------------------------------------------------
 Cartesian Forces:  Max     0.001406730 RMS     0.000518255

 GradGradGradGradGradGradGradGradGradGradGradGradGradGradGradGradGradGrad
 Berny optimization.
 Using GEDIIS/GDIIS optimizer.
 Internal  Forces:  Max     0.001630811 RMS     0.000522927
 Search for a local minimum.
 Step number   2 out of a maximum of   73
 All quantities printed in internal units (Hartrees-Bohrs-Radians)
 Mixed Optimization -- En-DIIS/RFO-DIIS
 Update second derivatives using D2CorX and points    1    2
 DE= -1.97D-03 DEPred=-2.19D-03 R= 9.02D-01
 SS=  1.41D+00  RLast= 9.84D-02 DXNew= 5.0454D-01 2.9509D-01
 Trust test= 9.02D-01 RLast= 9.84D-02 DXMaxT set to 3.00D-01
 ITU=  1  0
 Use linear search instead of GDIIS.
     Eigenvalues ---    0.01741   0.02092   0.02247   0.02288   0.02298
     Eigenvalues ---    0.02323   0.02325   0.02333   0.02340   0.02342
     Eigenvalues ---    0.04547   0.15988   0.16000   0.16000   0.16000
     Eigenvalues ---    0.16000   0.16000   0.16002   0.21999   0.22000
     Eigenvalues ---    0.23467   0.24962   0.36574   0.36575   0.36644
     Eigenvalues ---    0.36747   0.36882   0.43682   0.43882   0.46157
     Eigenvalues ---    0.47829   0.48030   0.48570   0.48745   0.48806
     Eigenvalues ---    0.53010
 RFO step:  Lambda=-2.88168673D-05 EMin= 1.74092158D-02
 Quartic linear search produced a step of -0.07164.
 Iteration  1 RMS(Cart)=  0.00300228 RMS(Int)=  0.00001782
 Iteration  2 RMS(Cart)=  0.00001281 RMS(Int)=  0.00001408
 Iteration  3 RMS(Cart)=  0.00000000 RMS(Int)=  0.00001408
 ClnCor:  largest displacement from symmetrization is 2.60D-12 for atom    12.
 Variable       Old X    -DE/DX   Delta X   Delta X   Delta X     New X
                                 (Linear)    (Quad)   (Total)
    R1        2.65431  -0.00129  -0.00212  -0.00024  -0.00236   2.65195
    R2        2.65431  -0.00129  -0.00212  -0.00024  -0.00236   2.65195
    R3        2.64877  -0.00163  -0.00073  -0.00250  -0.00323   2.64554
    R4        2.63474  -0.00151  -0.00193  -0.00080  -0.00273   2.63201
    R5        2.05467  -0.00035  -0.00163   0.00083  -0.00080   2.05386
    R6        2.64032  -0.00151  -0.00204  -0.00073  -0.00277   2.63755
    R7        2.05300  -0.00049  -0.00159   0.00043  -0.00116   2.05185
    R8        2.64032  -0.00151  -0.00204  -0.00073  -0.00277   2.63755
    R9        2.05046  -0.00037  -0.00158   0.00074  -0.00085   2.04961
   R10        2.63474  -0.00151  -0.00193  -0.00080  -0.00273   2.63201
   R11        2.05300  -0.00049  -0.00159   0.00043  -0.00116   2.05185
   R12        2.05467  -0.00035  -0.00163   0.00083  -0.00080   2.05386
   R13        1.91201  -0.00015  -0.00227   0.00212  -0.00015   1.91186
   R14        1.91201  -0.00015  -0.00227   0.00212  -0.00015   1.91186
    A1        2.07199   0.00003   0.00004   0.00016   0.00020   2.07219
    A2        2.10497  -0.00002  -0.00002  -0.00014  -0.00016   2.10482
    A3        2.10497  -0.00002  -0.00002  -0.00014  -0.00016   2.10482
    A4        2.10194  -0.00008  -0.00006  -0.00018  -0.00024   2.10170
    A5        2.08597  -0.00011   0.00016  -0.00089  -0.00074   2.08523
    A6        2.09527   0.00018  -0.00010   0.00107   0.00097   2.09624
    A7        2.10745   0.00002   0.00015  -0.00011   0.00004   2.10749
    A8        2.08038  -0.00001  -0.00001   0.00000   0.00000   2.08038
    A9        2.09535  -0.00001  -0.00014   0.00010  -0.00004   2.09531
   A10        2.07558   0.00008  -0.00021   0.00041   0.00020   2.07579
   A11        2.10380  -0.00004   0.00011  -0.00021  -0.00010   2.10370
   A12        2.10380  -0.00004   0.00011  -0.00021  -0.00010   2.10370
   A13        2.10745   0.00002   0.00015  -0.00011   0.00004   2.10749
   A14        2.09535  -0.00001  -0.00014   0.00010  -0.00004   2.09531
   A15        2.08038  -0.00001  -0.00001   0.00000   0.00000   2.08038
   A16        2.10194  -0.00008  -0.00006  -0.00018  -0.00024   2.10170
   A17        2.08597  -0.00011   0.00016  -0.00089  -0.00074   2.08523
   A18        2.09527   0.00018  -0.00010   0.00107   0.00097   2.09624
   A19        1.99886  -0.00039  -0.00012  -0.00515  -0.00532   1.99355
   A20        1.99886  -0.00039  -0.00012  -0.00515  -0.00532   1.99355
   A21        1.94096  -0.00006  -0.00019  -0.00470  -0.00496   1.93601
    D1       -0.00550   0.00005  -0.00025   0.00198   0.00173  -0.00377
    D2        3.13231   0.00003  -0.00020   0.00138   0.00118   3.13349
    D3       -3.09370   0.00010  -0.00028   0.00432   0.00404  -3.08967
    D4        0.04411   0.00009  -0.00023   0.00371   0.00348   0.04759
    D5        0.00550  -0.00005   0.00025  -0.00198  -0.00173   0.00377
    D6       -3.13231  -0.00003   0.00020  -0.00138  -0.00118  -3.13349
    D7        3.09370  -0.00010   0.00028  -0.00432  -0.00404   3.08967
    D8       -0.04411  -0.00009   0.00023  -0.00371  -0.00348  -0.04759
    D9       -2.73410   0.00040   0.00027   0.00734   0.00758  -2.72651
   D10       -0.46190  -0.00045  -0.00024  -0.00971  -0.00992  -0.47182
   D11        0.46190   0.00045   0.00024   0.00971   0.00992   0.47182
   D12        2.73410  -0.00040  -0.00027  -0.00734  -0.00758   2.72651
   D13        0.00221  -0.00002   0.00018  -0.00105  -0.00087   0.00133
   D14       -3.13863  -0.00001  -0.00001  -0.00026  -0.00026  -3.13890
   D15       -3.13559  -0.00001   0.00012  -0.00044  -0.00032  -3.13590
   D16        0.00676   0.00001  -0.00006   0.00036   0.00029   0.00705
   D17        0.00117   0.00000  -0.00010   0.00008  -0.00002   0.00116
   D18       -3.13994   0.00001  -0.00014   0.00030   0.00016  -3.13978
   D19       -3.14118  -0.00002   0.00009  -0.00072  -0.00063   3.14137
   D20        0.00089  -0.00001   0.00004  -0.00049  -0.00045   0.00044
   D21       -0.00117   0.00000   0.00010  -0.00008   0.00002  -0.00116
   D22        3.14118   0.00002  -0.00009   0.00072   0.00063  -3.14137
   D23        3.13994  -0.00001   0.00014  -0.00030  -0.00016   3.13978
   D24       -0.00089   0.00001  -0.00004   0.00049   0.00045  -0.00044
   D25       -0.00221   0.00002  -0.00018   0.00105   0.00087  -0.00133
   D26        3.13559   0.00001  -0.00012   0.00044   0.00032   3.13590
   D27        3.13863   0.00001   0.00001   0.00026   0.00026   3.13890
   D28       -0.00676  -0.00001   0.00006  -0.00036  -0.00029  -0.00705
         Item               Value     Threshold  Converged?
 Maximum Force            0.001631     0.000450     NO 
 RMS     Force            0.000523     0.000300     NO 
 Maximum Displacement     0.010925     0.001800     NO 
 RMS     Displacement     0.003011     0.001200     NO 
 Predicted change in Energy=-2.536787D-05
 GradGradGradGradGradGradGradGradGradGradGradGradGradGradGradGradGradGrad

                          Input orientation:                          
 ---------------------------------------------------------------------
 Center     Atomic      Atomic             Coordinates (Angstroms)
 Number     Number       Type             X           Y           Z
 ---------------------------------------------------------------------
      1          6           0        0.001338    0.936920    0.000000
      2          6           0        0.005071    0.221805    1.207475
      3          6           0        0.007813   -1.170984    1.202194
      4          6           0        0.008504   -1.880067    0.000000
      5          6           0        0.007813   -1.170984   -1.202194
      6          6           0        0.005071    0.221805   -1.207475
      7          7           0        0.061118    2.335605    0.000000
      8          1           0        0.009907    0.763416    2.149757
      9          1           0        0.008127   -1.704241    2.148016
     10          1           0        0.008950   -2.964672    0.000000
     11          1           0        0.008127   -1.704241   -2.148016
     12          1           0        0.009907    0.763416   -2.149757
     13          1           0       -0.316667    2.767208   -0.833405
     14          1           0       -0.316667    2.767208    0.833405
 ---------------------------------------------------------------------
                    Distance matrix (angstroms):
                    1          2          3          4          5
     1  C    0.000000
     2  C    1.403353   0.000000
     3  C    2.426638   1.392802   0.000000
     4  C    2.816996   2.424020   1.395732   0.000000
     5  C    2.426638   2.783231   2.404388   1.395732   0.000000
     6  C    1.403353   2.414951   2.783231   2.424020   1.392802
     7  N    1.399962   2.435013   3.707328   4.216000   3.707328
     8  H    2.156765   1.086859   2.154016   3.407266   3.870076
     9  H    3.404372   2.143427   1.085791   2.155200   3.392384
    10  H    3.901600   3.407587   2.159303   1.084606   2.159303
    11  H    3.404372   3.868977   3.392384   2.155200   1.085791
    12  H    2.156765   3.400644   3.870076   3.407266   2.154016
    13  H    2.036085   3.278381   4.445032   4.732595   3.968709
    14  H    2.036085   2.592782   3.968709   4.732595   4.445032
                    6          7          8          9         10
     6  C    0.000000
     7  N    2.435013   0.000000
     8  H    3.400644   2.663805   0.000000
     9  H    3.868977   4.575711   2.467658   0.000000
    10  H    3.407587   5.300534   4.303498   2.490514   0.000000
    11  H    2.143427   4.575711   4.955824   4.296032   2.490514
    12  H    1.086859   2.663805   4.299515   4.955824   4.303498
    13  H    2.592782   1.011715   3.608475   5.384071   5.801296
    14  H    3.278381   1.011715   2.419631   4.671996   5.801296
                   11         12         13         14
    11  H    0.000000
    12  H    2.467658   0.000000
    13  H    4.671996   2.419631   0.000000
    14  H    5.384071   3.608475   1.666811   0.000000
 Stoichiometry    C6H7N
 Framework group  CS[SG(C2HN),X(C4H6)]
 Deg. of freedom    20
 Full point group                 CS      NOp   2
 Largest Abelian subgroup         CS      NOp   2
 Largest concise Abelian subgroup CS      NOp   2
                         Standard orientation:                         
 ---------------------------------------------------------------------
 Center     Atomic      Atomic             Coordinates (Angstroms)
 Number     Number       Type             X           Y           Z
 ---------------------------------------------------------------------
      1          6           0        0.002120    0.937152    0.000000
      2          6           0        0.004444    0.222031    1.207475
      3          6           0        0.004444   -1.170761    1.202194
      4          6           0        0.003740   -1.879843    0.000000
      5          6           0        0.004444   -1.170761   -1.202194
      6          6           0        0.004444    0.222031   -1.207475
      7          7           0        0.064653    2.335716    0.000000
      8          1           0        0.010348    0.763631    2.149757
      9          1           0        0.003709   -1.704017    2.148016
     10          1           0        0.002050   -2.964448    0.000000
     11          1           0        0.003709   -1.704017   -2.148016
     12          1           0        0.010348    0.763631   -2.149757
     13          1           0       -0.312281    2.768062   -0.833405
     14          1           0       -0.312281    2.768062    0.833405
 ---------------------------------------------------------------------
 Rotational constants (GHZ):      5.6186711      2.5917402      1.7767678
 Standard basis: 6-31G(d) (6D, 7F)
 There are    71 symmetry adapted basis functions of A'  symmetry.
 There are    48 symmetry adapted basis functions of A"  symmetry.
 Integral buffers will be    131072 words long.
 Raffenetti 1 integral format.
 Two-electron integral symmetry is turned on.
   119 basis functions,   224 primitive gaussians,   119 cartesian basis functions
    25 alpha electrons       25 beta electrons
       nuclear repulsion energy       271.1771054218 Hartrees.
 NAtoms=   14 NActive=   14 NUniq=    9 SFac= 2.42D+00 NAtFMM=   50 NAOKFM=F Big=F
 One-electron integrals computed using PRISM.
 NBasis=   119 RedAO= T  NBF=    71    48
 NBsUse=   119 1.00D-06 NBFU=    71    48
 Initial guess read from the read-write file.
 B after Tr=     0.000000    0.000000    0.000000
         Rot=    1.000000    0.000000    0.000000    0.000000 Ang=   0.00 deg.
 Initial guess orbital symmetries:
       Occupied  (A') (A') (A') (A") (A") (A') (A') (A') (A') (A")
                 (A') (A") (A') (A') (A") (A') (A') (A") (A") (A')
                 (A') (A") (A') (A") (A')
       Virtual   (A") (A') (A') (A') (A") (A') (A") (A') (A") (A')
                 (A') (A") (A') (A") (A') (A") (A') (A') (A') (A")
                 (A') (A') (A") (A') (A') (A") (A") (A") (A') (A')
                 (A') (A') (A") (A') (A') (A") (A") (A') (A') (A")
                 (A") (A') (A') (A") (A') (A") (A') (A") (A") (A')
                 (A') (A") (A') (A") (A') (A") (A') (A') (A") (A')
                 (A') (A") (A') (A') (A") (A') (A') (A") (A") (A')
                 (A") (A') (A") (A') (A") (A') (A') (A") (A') (A")
                 (A') (A') (A") (A") (A') (A") (A') (A') (A') (A")
                 (A') (A") (A') (A')
 Requested convergence on RMS density matrix=1.00D-08 within 128 cycles.
 Requested convergence on MAX density matrix=1.00D-06.
 Requested convergence on             energy=1.00D-06.
 No special actions if energy rises.
 Keep R1 ints in memory in canonical form, NReq=26611363.
 SCF Done:  E(RB2PLYP) =  -286.967095107     A.U. after    9 cycles
             Convg  =    0.6615D-08             -V/T =  2.0069
 Range of M.O.s used for correlation:     1   119
 NBasis=   119 NAE=    25 NBE=    25 NFC=     0 NFV=     0
 NROrb=    119 NOA=    25 NOB=    25 NVA=    94 NVB=    94
 DoSCS=T DFT=T ScalE2(SS,OS)=  0.270000  0.270000
 Fully direct method using O(ONN) memory.
 JobTyp=1 Pass  1:  I=   1 to  25 NPSUse=  8 ParTrn=T ParDer=T DoDerP=T.
 Spin components of T(2) and E(2):
     alpha-alpha T2 =       0.7152537674D-01 E2=     -0.4193651163D-01
     alpha-beta  T2 =       0.3754890901D+00 E2=     -0.2319774713D+00
     beta-beta   T2 =       0.7152537674D-01 E2=     -0.4193651163D-01
 E2(B2PLYP) =    -0.3158504946D+00 E(B2PLYP) =    -0.28728294560151D+03
          IDoAtm=11111111111111
          Differentiating once with respect to electric field.
                with respect to dipole field.
          Differentiating once with respect to nuclear coordinates.
          Keep R1 ints in memory in canonical form, NReq=26320913.
          There are     1 degrees of freedom in the 1st order CPHF.  IDoFFX=0.
 LinEq1:  Iter=  0 NonCon=     1 RMS=2.05D-03 Max=3.86D-02
 AX will form     1 AO Fock derivatives at one time.
 LinEq1:  Iter=  1 NonCon=     1 RMS=7.35D-04 Max=9.00D-03
 LinEq1:  Iter=  2 NonCon=     1 RMS=1.86D-04 Max=3.67D-03
 LinEq1:  Iter=  3 NonCon=     1 RMS=9.10D-05 Max=1.67D-03
 LinEq1:  Iter=  4 NonCon=     1 RMS=3.51D-05 Max=5.14D-04
 LinEq1:  Iter=  5 NonCon=     1 RMS=1.43D-05 Max=4.60D-04
 LinEq1:  Iter=  6 NonCon=     1 RMS=5.99D-06 Max=1.06D-04
 LinEq1:  Iter=  7 NonCon=     1 RMS=2.31D-06 Max=5.13D-05
 LinEq1:  Iter=  8 NonCon=     1 RMS=1.41D-06 Max=2.71D-05
 LinEq1:  Iter=  9 NonCon=     1 RMS=3.16D-07 Max=3.54D-06
 LinEq1:  Iter= 10 NonCon=     1 RMS=1.02D-07 Max=1.43D-06
 LinEq1:  Iter= 11 NonCon=     1 RMS=4.50D-08 Max=5.63D-07
 LinEq1:  Iter= 12 NonCon=     1 RMS=8.84D-09 Max=9.59D-08
 LinEq1:  Iter= 13 NonCon=     1 RMS=2.53D-09 Max=3.13D-08
 LinEq1:  Iter= 14 NonCon=     1 RMS=4.03D-10 Max=4.93D-09
 LinEq1:  Iter= 15 NonCon=     0 RMS=7.65D-11 Max=9.35D-10
 Linear equations converged to 1.000D-10 1.000D-09 after    15 iterations.
 End of Minotr Frequency-dependent properties file   721 does not exist.
 End of Minotr Frequency-dependent properties file   722 does not exist.
 Calling FoFJK, ICntrl=      2127 FMM=F ISym2X=1 I1Cent= 0 IOpClX= 0 NMat=1 NMatS=1 NMatT=0.
 ***** Axes restored to original set *****
 -------------------------------------------------------------------
 Center     Atomic                   Forces (Hartrees/Bohr)
 Number     Number              X              Y              Z
 -------------------------------------------------------------------
      1        6          -0.000166930   -0.000434842    0.000000000
      2        6           0.000017070   -0.000203600   -0.000050416
      3        6           0.000019072    0.000010920   -0.000016604
      4        6          -0.000013413    0.000105759    0.000000000
      5        6           0.000019072    0.000010920    0.000016604
      6        6           0.000017070   -0.000203600    0.000050416
      7        7           0.000779770    0.000297743    0.000000000
      8        1          -0.000025771    0.000028597   -0.000050112
      9        1          -0.000013294    0.000003886   -0.000039973
     10        1           0.000016341    0.000033253    0.000000000
     11        1          -0.000013294    0.000003886    0.000039973
     12        1          -0.000025771    0.000028597    0.000050112
     13        1          -0.000304961    0.000159241   -0.000034549
     14        1          -0.000304961    0.000159241    0.000034549
 -------------------------------------------------------------------
 Cartesian Forces:  Max     0.000779770 RMS     0.000173695

 GradGradGradGradGradGradGradGradGradGradGradGradGradGradGradGradGradGrad
 Berny optimization.
 Using GEDIIS/GDIIS optimizer.
 Internal  Forces:  Max     0.000622806 RMS     0.000106287
 Search for a local minimum.
 Step number   3 out of a maximum of   73
 All quantities printed in internal units (Hartrees-Bohrs-Radians)
 Mixed Optimization -- En-DIIS/RFO-DIIS
 Swaping is turned off.
 Update second derivatives using D2CorX and points    1    2    3
 DE= -2.93D-05 DEPred=-2.54D-05 R= 1.15D+00
 SS=  1.41D+00  RLast= 2.28D-02 DXNew= 5.0454D-01 6.8518D-02
 Trust test= 1.15D+00 RLast= 2.28D-02 DXMaxT set to 3.00D-01
 ITU=  1  1  0
     Eigenvalues ---    0.01741   0.02081   0.02215   0.02288   0.02299
     Eigenvalues ---    0.02323   0.02325   0.02334   0.02340   0.02341
     Eigenvalues ---    0.03546   0.15911   0.16000   0.16000   0.16000
     Eigenvalues ---    0.16000   0.16000   0.16199   0.21997   0.22000
     Eigenvalues ---    0.23547   0.24959   0.36510   0.36575   0.36634
     Eigenvalues ---    0.36644   0.36792   0.43647   0.43875   0.45836
     Eigenvalues ---    0.47556   0.47828   0.48570   0.48793   0.48806
     Eigenvalues ---    0.60319
 En-DIIS/RFO-DIIS IScMMF=        0 using points:     3    2
 RFO step:  Lambda=-1.64699192D-06.
 DidBck=F Rises=F RFO-DIIS coefs:    1.14343   -0.14343
 Iteration  1 RMS(Cart)=  0.00094379 RMS(Int)=  0.00000619
 Iteration  2 RMS(Cart)=  0.00000339 RMS(Int)=  0.00000535
 Iteration  3 RMS(Cart)=  0.00000000 RMS(Int)=  0.00000535
 ClnCor:  largest displacement from symmetrization is 2.26D-12 for atom    12.
 Variable       Old X    -DE/DX   Delta X   Delta X   Delta X     New X
                                  (DIIS)     (GDIIS)  (Total)
    R1        2.65195  -0.00002  -0.00034   0.00015  -0.00019   2.65177
    R2        2.65195  -0.00002  -0.00034   0.00015  -0.00019   2.65177
    R3        2.64554   0.00062  -0.00046   0.00173   0.00127   2.64681
    R4        2.63201  -0.00008  -0.00039  -0.00001  -0.00040   2.63162
    R5        2.05386  -0.00003  -0.00012   0.00000  -0.00012   2.05375
    R6        2.63755  -0.00011  -0.00040  -0.00007  -0.00047   2.63708
    R7        2.05185  -0.00004  -0.00017  -0.00001  -0.00018   2.05167
    R8        2.63755  -0.00011  -0.00040  -0.00007  -0.00047   2.63708
    R9        2.04961  -0.00003  -0.00012  -0.00001  -0.00014   2.04947
   R10        2.63201  -0.00008  -0.00039  -0.00001  -0.00040   2.63162
   R11        2.05185  -0.00004  -0.00017  -0.00001  -0.00018   2.05167
   R12        2.05386  -0.00003  -0.00012   0.00000  -0.00012   2.05375
   R13        1.91186   0.00021  -0.00002   0.00058   0.00056   1.91243
   R14        1.91186   0.00021  -0.00002   0.00058   0.00056   1.91243
    A1        2.07219  -0.00011   0.00003  -0.00050  -0.00047   2.07172
    A2        2.10482   0.00005  -0.00002   0.00024   0.00022   2.10503
    A3        2.10482   0.00005  -0.00002   0.00024   0.00022   2.10503
    A4        2.10170   0.00006  -0.00003   0.00033   0.00029   2.10199
    A5        2.08523  -0.00008  -0.00011  -0.00049  -0.00060   2.08463
    A6        2.09624   0.00002   0.00014   0.00017   0.00031   2.09655
    A7        2.10749  -0.00002   0.00001  -0.00011  -0.00011   2.10738
    A8        2.08038   0.00002   0.00000   0.00018   0.00017   2.08056
    A9        2.09531  -0.00001  -0.00001  -0.00006  -0.00007   2.09525
   A10        2.07579   0.00002   0.00003   0.00008   0.00011   2.07589
   A11        2.10370  -0.00001  -0.00001  -0.00004  -0.00005   2.10365
   A12        2.10370  -0.00001  -0.00001  -0.00004  -0.00005   2.10365
   A13        2.10749  -0.00002   0.00001  -0.00011  -0.00011   2.10738
   A14        2.09531  -0.00001  -0.00001  -0.00006  -0.00007   2.09525
   A15        2.08038   0.00002   0.00000   0.00018   0.00017   2.08056
   A16        2.10170   0.00006  -0.00003   0.00033   0.00029   2.10199
   A17        2.08523  -0.00008  -0.00011  -0.00049  -0.00060   2.08463
   A18        2.09624   0.00002   0.00014   0.00017   0.00031   2.09655
   A19        1.99355  -0.00001  -0.00076  -0.00123  -0.00201   1.99154
   A20        1.99355  -0.00001  -0.00076  -0.00123  -0.00201   1.99154
   A21        1.93601  -0.00021  -0.00071  -0.00340  -0.00413   1.93187
    D1       -0.00377   0.00001   0.00025   0.00040   0.00064  -0.00312
    D2        3.13349   0.00002   0.00017   0.00066   0.00083   3.13432
    D3       -3.08967   0.00002   0.00058   0.00078   0.00136  -3.08831
    D4        0.04759   0.00002   0.00050   0.00104   0.00154   0.04913
    D5        0.00377  -0.00001  -0.00025  -0.00040  -0.00064   0.00312
    D6       -3.13349  -0.00002  -0.00017  -0.00066  -0.00083  -3.13432
    D7        3.08967  -0.00002  -0.00058  -0.00078  -0.00136   3.08831
    D8       -0.04759  -0.00002  -0.00050  -0.00104  -0.00154  -0.04913
    D9       -2.72651   0.00015   0.00109   0.00342   0.00450  -2.72202
   D10       -0.47182  -0.00017  -0.00142  -0.00383  -0.00524  -0.47706
   D11        0.47182   0.00017   0.00142   0.00383   0.00524   0.47706
   D12        2.72651  -0.00015  -0.00109  -0.00342  -0.00450   2.72202
   D13        0.00133   0.00000  -0.00013  -0.00004  -0.00017   0.00117
   D14       -3.13890   0.00000  -0.00004   0.00017   0.00013  -3.13876
   D15       -3.13590  -0.00001  -0.00005  -0.00030  -0.00035  -3.13625
   D16        0.00705   0.00000   0.00004  -0.00009  -0.00005   0.00701
   D17        0.00116  -0.00001   0.00000  -0.00031  -0.00031   0.00084
   D18       -3.13978   0.00000   0.00002  -0.00026  -0.00023  -3.14002
   D19        3.14137  -0.00001  -0.00009  -0.00053  -0.00062   3.14075
   D20        0.00044  -0.00001  -0.00007  -0.00047  -0.00054  -0.00010
   D21       -0.00116   0.00001   0.00000   0.00031   0.00031  -0.00084
   D22       -3.14137   0.00001   0.00009   0.00053   0.00062  -3.14075
   D23        3.13978   0.00000  -0.00002   0.00026   0.00023   3.14002
   D24       -0.00044   0.00001   0.00007   0.00047   0.00054   0.00010
   D25       -0.00133   0.00000   0.00013   0.00004   0.00017  -0.00117
   D26        3.13590   0.00001   0.00005   0.00030   0.00035   3.13625
   D27        3.13890   0.00000   0.00004  -0.00017  -0.00013   3.13876
   D28       -0.00705   0.00000  -0.00004   0.00009   0.00005  -0.00701
         Item               Value     Threshold  Converged?
 Maximum Force            0.000623     0.000450     NO 
 RMS     Force            0.000106     0.000300     YES
 Maximum Displacement     0.004993     0.001800     NO 
 RMS     Displacement     0.000945     0.001200     YES
 Predicted change in Energy=-2.838336D-06
 GradGradGradGradGradGradGradGradGradGradGradGradGradGradGradGradGradGrad

                          Input orientation:                          
 ---------------------------------------------------------------------
 Center     Atomic      Atomic             Coordinates (Angstroms)
 Number     Number       Type             X           Y           Z
 ---------------------------------------------------------------------
      1          6           0        0.002094    0.936952    0.000000
      2          6           0        0.005312    0.221601    1.207222
      3          6           0        0.007823   -1.170978    1.202019
      4          6           0        0.008588   -1.879870    0.000000
      5          6           0        0.007823   -1.170978   -1.202019
      6          6           0        0.005312    0.221601   -1.207222
      7          7           0        0.063760    2.336226    0.000000
      8          1           0        0.009758    0.763523    2.149255
      9          1           0        0.007611   -1.704302    2.147695
     10          1           0        0.009072   -2.964403    0.000000
     11          1           0        0.007611   -1.704302   -2.147695
     12          1           0        0.009758    0.763523   -2.149255
     13          1           0       -0.318054    2.766799   -0.832463
     14          1           0       -0.318054    2.766799    0.832463
 ---------------------------------------------------------------------
                    Distance matrix (angstroms):
                    1          2          3          4          5
     1  C    0.000000
     2  C    1.403254   0.000000
     3  C    2.426572   1.392591   0.000000
     4  C    2.816829   2.423546   1.395485   0.000000
     5  C    2.426572   2.782755   2.404038   1.395485   0.000000
     6  C    1.403254   2.414444   2.782755   2.423546   1.392591
     7  N    1.400632   2.435660   3.707891   4.216457   3.707891
     8  H    2.156254   1.086795   2.153962   3.406879   3.869539
     9  H    3.404239   2.143268   1.085697   2.154860   3.391905
    10  H    3.901361   3.407055   2.158987   1.084533   2.158987
    11  H    3.404239   3.868407   3.391905   2.154860   1.085697
    12  H    2.156254   3.399946   3.869539   3.406879   2.153962
    13  H    2.035639   3.277638   4.444254   4.731936   3.968482
    14  H    2.035639   2.592882   3.968482   4.731936   4.444254
                    6          7          8          9         10
     6  C    0.000000
     7  N    2.435660   0.000000
     8  H    3.399946   2.663758   0.000000
     9  H    3.868407   4.576200   2.467826   0.000000
    10  H    3.407055   5.300911   4.303107   2.490071   0.000000
    11  H    2.143268   4.576200   4.955193   4.295390   2.490071
    12  H    1.086795   2.663758   4.298509   4.955193   4.303107
    13  H    2.592882   1.012012   3.607106   5.383134   5.800576
    14  H    3.277638   1.012012   2.419611   4.671898   5.800576
                   11         12         13         14
    11  H    0.000000
    12  H    2.467826   0.000000
    13  H    4.671898   2.419611   0.000000
    14  H    5.383134   3.607106   1.664925   0.000000
 Stoichiometry    C6H7N
 Framework group  CS[SG(C2HN),X(C4H6)]
 Deg. of freedom    20
 Full point group                 CS      NOp   2
 Largest Abelian subgroup         CS      NOp   2
 Largest concise Abelian subgroup CS      NOp   2
                         Standard orientation:                         
 ---------------------------------------------------------------------
 Center     Atomic      Atomic             Coordinates (Angstroms)
 Number     Number       Type             X           Y           Z
 ---------------------------------------------------------------------
      1          6           0        0.002270    0.937125    0.000000
      2          6           0        0.004197    0.221770    1.207222
      3          6           0        0.004197   -1.170811    1.202019
      4          6           0        0.003684   -1.879703    0.000000
      5          6           0        0.004197   -1.170811   -1.202019
      6          6           0        0.004197    0.221770   -1.207222
      7          7           0        0.066458    2.336286    0.000000
      8          1           0        0.009621    0.763683    2.149255
      9          1           0        0.003023   -1.704134    2.147695
     10          1           0        0.002212   -2.964236    0.000000
     11          1           0        0.003023   -1.704134   -2.147695
     12          1           0        0.009621    0.763683   -2.149255
     13          1           0       -0.314579    2.767546   -0.832463
     14          1           0       -0.314579    2.767546    0.832463
 ---------------------------------------------------------------------
 Rotational constants (GHZ):      5.6204974      2.5913368      1.7768338
 Standard basis: 6-31G(d) (6D, 7F)
 There are    71 symmetry adapted basis functions of A'  symmetry.
 There are    48 symmetry adapted basis functions of A"  symmetry.
 Integral buffers will be    131072 words long.
 Raffenetti 1 integral format.
 Two-electron integral symmetry is turned on.
   119 basis functions,   224 primitive gaussians,   119 cartesian basis functions
    25 alpha electrons       25 beta electrons
       nuclear repulsion energy       271.1867898148 Hartrees.
 NAtoms=   14 NActive=   14 NUniq=    9 SFac= 2.42D+00 NAtFMM=   50 NAOKFM=F Big=F
 One-electron integrals computed using PRISM.
 NBasis=   119 RedAO= T  NBF=    71    48
 NBsUse=   119 1.00D-06 NBFU=    71    48
 Initial guess read from the read-write file.
 B after Tr=     0.000000    0.000000    0.000000
         Rot=    1.000000    0.000000    0.000000    0.000000 Ang=   0.00 deg.
 Initial guess orbital symmetries:
       Occupied  (A') (A') (A') (A") (A") (A') (A') (A') (A') (A")
                 (A') (A") (A') (A') (A") (A') (A') (A") (A") (A')
                 (A') (A") (A') (A") (A')
       Virtual   (A") (A') (A') (A') (A") (A') (A") (A') (A") (A')
                 (A') (A") (A') (A") (A') (A") (A') (A') (A') (A")
                 (A') (A') (A") (A') (A') (A") (A") (A") (A') (A')
                 (A') (A') (A") (A') (A') (A") (A") (A') (A') (A")
                 (A") (A') (A') (A") (A') (A") (A') (A") (A") (A')
                 (A') (A") (A') (A") (A') (A") (A') (A') (A") (A')
                 (A') (A") (A') (A') (A") (A') (A') (A") (A") (A')
                 (A") (A') (A") (A') (A") (A') (A') (A") (A') (A")
                 (A') (A') (A") (A") (A') (A") (A') (A') (A') (A")
                 (A') (A") (A') (A')
 Requested convergence on RMS density matrix=1.00D-08 within 128 cycles.
 Requested convergence on MAX density matrix=1.00D-06.
 Requested convergence on             energy=1.00D-06.
 No special actions if energy rises.
 Keep R1 ints in memory in canonical form, NReq=26611363.
 SCF Done:  E(RB2PLYP) =  -286.967103493     A.U. after    9 cycles
             Convg  =    0.4960D-08             -V/T =  2.0069
 Range of M.O.s used for correlation:     1   119
 NBasis=   119 NAE=    25 NBE=    25 NFC=     0 NFV=     0
 NROrb=    119 NOA=    25 NOB=    25 NVA=    94 NVB=    94
 DoSCS=T DFT=T ScalE2(SS,OS)=  0.270000  0.270000
 Fully direct method using O(ONN) memory.
 JobTyp=1 Pass  1:  I=   1 to  25 NPSUse=  8 ParTrn=T ParDer=T DoDerP=T.
 Spin components of T(2) and E(2):
     alpha-alpha T2 =       0.7152105757D-01 E2=     -0.4193580020D-01
[...]
   D24        0.00042   0.00000   0.00000  -0.00018  -0.00018   0.00023
   D25       -0.00126   0.00000   0.00000  -0.00012  -0.00012  -0.00137
   D26        3.13635   0.00000   0.00000  -0.00011  -0.00011   3.13624
   D27        3.13864   0.00000   0.00000  -0.00003  -0.00003   3.13861
   D28       -0.00693   0.00000   0.00000  -0.00002  -0.00002  -0.00695
         Item               Value     Threshold  Converged?
 Maximum Force            0.000148     0.000450     YES
 RMS     Force            0.000022     0.000300     YES
 Maximum Displacement     0.000644     0.001800     YES
 RMS     Displacement     0.000193     0.001200     YES
 Predicted change in Energy=-5.786114D-08
 Optimization completed.
    -- Stationary point found.
                           ----------------------------
                           !   Optimized Parameters   !
                           ! (Angstroms and Degrees)  !
 --------------------------                            --------------------------
 ! Name  Definition              Value          Derivative Info.                !
 --------------------------------------------------------------------------------
 ! R1    R(1,2)                  1.4032         -DE/DX =    0.0                 !
 ! R2    R(1,6)                  1.4032         -DE/DX =    0.0                 !
 ! R3    R(1,7)                  1.4014         -DE/DX =    0.0001              !
 ! R4    R(2,3)                  1.3927         -DE/DX =    0.0001              !
 ! R5    R(2,8)                  1.0868         -DE/DX =    0.0                 !
 ! R6    R(3,4)                  1.3956         -DE/DX =    0.0                 !
 ! R7    R(3,9)                  1.0857         -DE/DX =    0.0                 !
 ! R8    R(4,5)                  1.3956         -DE/DX =    0.0                 !
 ! R9    R(4,10)                 1.0846         -DE/DX =    0.0                 !
 ! R10   R(5,6)                  1.3927         -DE/DX =    0.0001              !
 ! R11   R(5,11)                 1.0857         -DE/DX =    0.0                 !
 ! R12   R(6,12)                 1.0868         -DE/DX =    0.0                 !
 ! R13   R(7,13)                 1.0123         -DE/DX =    0.0                 !
 ! R14   R(7,14)                 1.0123         -DE/DX =    0.0                 !
 ! A1    A(2,1,6)              118.713          -DE/DX =    0.0                 !
 ! A2    A(2,1,7)              120.6026         -DE/DX =    0.0                 !
 ! A3    A(6,1,7)              120.6026         -DE/DX =    0.0                 !
 ! A4    A(1,2,3)              120.4327         -DE/DX =    0.0                 !
 ! A5    A(1,2,8)              119.4396         -DE/DX =    0.0                 !
 ! A6    A(3,2,8)              120.1273         -DE/DX =    0.0                 !
 ! A7    A(2,3,4)              120.7361         -DE/DX =    0.0                 !
 ! A8    A(2,3,9)              119.2117         -DE/DX =    0.0                 !
 ! A9    A(4,3,9)              120.0521         -DE/DX =    0.0                 !
 ! A10   A(3,4,5)              118.9492         -DE/DX =    0.0                 !
 ! A11   A(3,4,10)             120.5254         -DE/DX =    0.0                 !
 ! A12   A(5,4,10)             120.5254         -DE/DX =    0.0                 !
 ! A13   A(4,5,6)              120.7361         -DE/DX =    0.0                 !
 ! A14   A(4,5,11)             120.0521         -DE/DX =    0.0                 !
 ! A15   A(6,5,11)             119.2117         -DE/DX =    0.0                 !
 ! A16   A(1,6,5)              120.4327         -DE/DX =    0.0                 !
 ! A17   A(1,6,12)             119.4396         -DE/DX =    0.0                 !
 ! A18   A(5,6,12)             120.1273         -DE/DX =    0.0                 !
 ! A19   A(1,7,13)             114.0007         -DE/DX =    0.0                 !
 ! A20   A(1,7,14)             114.0007         -DE/DX =    0.0                 !
 ! A21   A(13,7,14)            110.5543         -DE/DX =    0.0                 !
 ! D1    D(6,1,2,3)             -0.1873         -DE/DX =    0.0                 !
 ! D2    D(6,1,2,8)            179.5862         -DE/DX =    0.0                 !
 ! D3    D(7,1,2,3)           -176.9166         -DE/DX =    0.0                 !
 ! D4    D(7,1,2,8)              2.8568         -DE/DX =    0.0                 !
 ! D5    D(2,1,6,5)              0.1873         -DE/DX =    0.0                 !
 ! D6    D(2,1,6,12)          -179.5862         -DE/DX =    0.0                 !
 ! D7    D(7,1,6,5)            176.9166         -DE/DX =    0.0                 !
 ! D8    D(7,1,6,12)            -2.8568         -DE/DX =    0.0                 !
 ! D9    D(2,1,7,13)          -155.7857         -DE/DX =    0.0                 !
 ! D10   D(2,1,7,14)           -27.5471         -DE/DX =    0.0                 !
 ! D11   D(6,1,7,13)            27.5471         -DE/DX =    0.0                 !
 ! D12   D(6,1,7,14)           155.7857         -DE/DX =    0.0                 !
 ! D13   D(1,2,3,4)              0.072          -DE/DX =    0.0                 !
 ! D14   D(1,2,3,9)           -179.8308         -DE/DX =    0.0                 !
 ! D15   D(8,2,3,4)           -179.6999         -DE/DX =    0.0                 !
 ! D16   D(8,2,3,9)              0.3973         -DE/DX =    0.0                 !
 ! D17   D(2,3,4,5)              0.0462         -DE/DX =    0.0                 !
 ! D18   D(2,3,4,10)          -179.9258         -DE/DX =    0.0                 !
 ! D19   D(9,3,4,5)            179.9482         -DE/DX =    0.0                 !
 ! D20   D(9,3,4,10)            -0.0238         -DE/DX =    0.0                 !
 ! D21   D(3,4,5,6)             -0.0462         -DE/DX =    0.0                 !
 ! D22   D(3,4,5,11)          -179.9482         -DE/DX =    0.0                 !
 ! D23   D(10,4,5,6)           179.9258         -DE/DX =    0.0                 !
 ! D24   D(10,4,5,11)            0.0238         -DE/DX =    0.0                 !
 ! D25   D(4,5,6,1)             -0.072          -DE/DX =    0.0                 !
 ! D26   D(4,5,6,12)           179.6999         -DE/DX =    0.0                 !
 ! D27   D(11,5,6,1)           179.8308         -DE/DX =    0.0                 !
 ! D28   D(11,5,6,12)           -0.3973         -DE/DX =    0.0                 !
 --------------------------------------------------------------------------------
 GradGradGradGradGradGradGradGradGradGradGradGradGradGradGradGradGradGrad

 1\1\GINC-N274\Freq\RB2PLYP-Full\6-31G(d)\C6H7N1\RDJ3\09-Jan-2012\0\\#N
  Geom=AllCheck Guess=TCheck SCRF=Check GenChk RB2PLYP-Full/6-31G(d) Fr
 eq\\aniline aniline casno=62533 state=1 config=1 method=59 basis=1\\0,
 1\C,0.0026254311,0.9368931439,0.\C,0.0057037902,0.2216706406,1.2072929
 049\C,0.0077724668,-1.1709787732,1.2021713896\C,0.0083341354,-1.879829
 176,0.\C,0.0077724668,-1.1709787732,-1.2021713896\C,0.0057037902,0.221
 6706406,-1.2072929049\N,0.0654166101,2.3368466134,0.\H,0.0102073265,0.
 7637228377,2.1492914181\H,0.007344942,-1.7043336968,2.1478553358\H,0.0
 08736754,-2.9643913453,0.\H,0.007344942,-1.7043336968,-2.1478553358\H,
 0.0102073265,0.7637228377,-2.1492914181\H,-0.3193789909,2.7662553737,-
 0.8319971513\H,-0.3193789909,2.7662553737,0.8319971513\\Version=EM64L-
 G09RevB.01\State=1-A'\HF=-286.9670882\MP2=-287.2829504\RMSD=1.478e-09\
 RMSF=4.596e-05\ZeroPoint=0.1179665\Thermal=0.1237776\Dipole=-0.4847616
 ,0.4425712,0.\DipoleDeriv=0.1358681,0.0568599,0.,0.0376761,1.4095591,0
 .,0.,0.,-0.0703697,-0.1797899,0.0143739,0.0085359,0.0033214,-0.3116308
 ,-0.0282658,0.0119377,0.3147148,0.0677172,-0.0982144,0.0008775,-0.0008
 358,0.0043272,0.1595888,0.083024,-0.0027532,-0.063311,0.1804453,-0.162
 9244,-0.0043006,0.,-0.0027351,-0.0254963,0.,0.,0.,-0.2733913,-0.098214
 4,0.0008775,0.0008358,0.0043272,0.1595888,-0.083024,0.0027532,0.063311
 ,0.1804453,-0.1797899,0.0143739,-0.0085359,0.0033214,-0.3116308,0.0282
 658,-0.0119377,-0.3147148,0.0677172,-0.5074777,-0.5210265,0.,-0.108154
 3,-1.3719338,0.,0.,0.,-0.1117333,0.1194318,0.0033738,0.0049507,0.00134
 79,-0.0114683,-0.0971963,0.0011346,-0.0791237,-0.0647561,0.1129536,0.0
 00485,0.0009324,0.0011521,0.0159777,0.0778783,-0.0000658,0.0863782,-0.
 0797534,0.1249312,0.0005416,0.,0.0003597,-0.1219908,0.,0.,0.,0.0550048
 ,0.1129536,0.000485,-0.0009324,0.0011521,0.0159777,-0.0778783,0.000065
 8,-0.0863782,-0.0797534,0.1194318,0.0033737,-0.0049507,0.0013479,-0.01
 14683,0.0971963,-0.0011346,0.0791237,-0.0647561,0.2504203,0.2148526,-0
 .0857757,0.0262784,0.2024635,-0.0338141,-0.0502623,-0.0268678,0.096591
 7,0.2504203,0.2148526,0.0857757,0.0262784,0.2024635,0.0338141,0.050262
 3,0.0268678,0.0965917\Polar=24.3578881,-0.9245027,89.9867731,0.,0.,75.
 482938\PG=CS [SG(C2H1N1),X(C4H6)]\NImag=0\\0.14851385,-0.00847120,0.71
 790348,0.,0.,0.71113889,-0.05491368,0.00074474,-0.00030790,0.10586967,
 0.00034096,-0.16799742,0.04206461,0.00113475,0.72765989,-0.00256152,0.
 11124000,-0.28033970,0.00132060,0.03214527,0.71361450,-0.00470279,0.00
 075758,-0.00049176,-0.04371373,0.00019434,0.00031365,0.11932477,-0.000
 18992,-0.02779936,0.07855047,-0.00095127,-0.35944490,-0.03180035,-0.00
 026316,0.70677722,0.00106882,0.03147075,0.03878359,-0.00051011,0.02950
 137,-0.12829093,-0.00024597,-0.02583036,0.73725320,-0.00083657,-0.0002
 2264,0.,0.00121453,0.00002616,-0.00001927,-0.04909149,-0.00006042,0.00
 013710,0.10858564,0.00094321,0.00569768,0.,0.00011648,-0.02895854,-0.0
 2723751,0.00008063,-0.18502727,-0.12759364,-0.00040723,0.76147427,0.,0
 .,-0.07281943,0.00108480,-0.07230488,0.03118210,-0.00015519,-0.0644477
 4,-0.29024197,0.,0.,0.67732839,-0.00470279,0.00075758,0.00049176,-0.00
 070313,0.00012873,-0.00012293,0.00070624,-0.00011316,-0.00016941,-0.04
 909149,0.00008063,0.00015519,0.11932477,-0.00018992,-0.02779936,-0.078
 55047,0.00069237,-0.04567385,0.02309314,-0.00011316,0.06040124,0.02405
 987,-0.00006042,-0.18502727,0.06444774,-0.00026316,0.70677722,-0.00106
 882,-0.03147075,0.03878359,-0.00026076,0.02862190,-0.01752451,0.000169
 41,-0.02405987,-0.05915188,-0.00013710,0.12759364,-0.29024197,0.000245
 97,0.02583036,0.73725320,-0.05491368,0.00074474,0.00030790,0.00149582,
 -0.00038502,0.00024455,-0.00070313,0.00069237,0.00026076,0.00121453,0.
 00011648,-0.00108480,-0.04371373,-0.00095127,0.00051011,0.10586967,0.0
 0034096,-0.16799742,-0.04206461,-0.00038502,0.05554700,-0.01791390,0.0
 0012873,-0.04567385,-0.02862190,0.00002616,-0.02895854,0.07230488,0.00
 019434,-0.35944490,-0.02950137,0.00113475,0.72765989,0.00256152,-0.111
 24000,-0.28033970,-0.00024455,0.01791390,-0.04793629,0.00012293,-0.023
 09313,-0.01752451,0.00001927,0.02723751,0.03118210,-0.00031365,0.03180
 035,-0.12829093,-0.00132060,-0.03214527,0.71361450,-0.03875350,0.03286
 704,0.,0.00520722,-0.00193182,0.00438121,0.00561974,0.00215519,-0.0016
 2382,-0.00128940,-0.00273439,0.,0.00561974,0.00215519,0.00162382,0.005
 20722,-0.00193182,-0.00438121,0.17354920,-0.02158412,-0.30492336,0.,-0
 .00116485,-0.03648602,0.01098205,0.00070988,0.00553395,-0.00095988,0.0
 0021900,-0.00691445,0.,0.00070988,0.00553395,0.00095988,-0.00116485,-0
 .03648602,-0.01098205,-0.17184265,0.61477234,0.,0.,-0.12083110,0.00093
 713,0.04610268,0.00190156,0.00107360,-0.00585007,-0.00935173,0.,0.,0.0
 0674891,-0.00107360,0.00585007,-0.00935173,-0.00093713,-0.04610268,0.0
 0190156,0.,0.,0.77170774,0.00162566,0.00005639,0.00030683,-0.02910957,
 -0.00068859,-0.00163016,-0.00068464,0.00003305,0.00018326,0.00774285,0
 .00010082,0.00006806,-0.00064029,0.00013939,-0.00008657,0.00596698,-0.
 00008977,-0.00007177,-0.00261418,-0.00057945,-0.00091315,0.02213450,-0
 .00001099,0.00968566,0.01482885,-0.00017840,-0.12856322,-0.11946807,-0
 .00016075,-0.01098672,-0.03036701,0.00001148,-0.00554793,0.00185869,-0
 .00002252,-0.00099876,0.00092638,-0.00001908,-0.00127579,0.00316056,-0
 .00018621,0.00229344,0.00056293,0.00025125,0.13427004,-0.00006940,-0.0
 1830226,-0.01997565,-0.00112040,-0.11920933,-0.27192988,-0.00002014,0.
 00221082,0.00373589,-0.00010644,0.00051907,0.00186423,0.00001025,0.001
 24890,0.00009174,0.00003117,0.00430855,-0.00310304,0.00041386,-0.00096
 802,0.00184345,0.00151621,0.12959479,0.28775934,0.00827229,0.00013996,
 0.00004491,0.00062432,0.00007806,-0.00011984,-0.03362640,0.00003527,0.
 00019748,0.00101733,-0.00003690,-0.00004644,0.00748465,-0.00002653,0.0
 0000528,-0.00081210,-0.00002589,-0.00004601,0.00021898,-0.00014571,0.0
 0002708,-0.00375724,0.00002430,0.00003118,0.02505269,-0.00021195,-0.00
 545286,-0.00179164,-0.00004597,-0.01101518,0.02960048,0.00005311,-0.12
 952876,0.12087037,-0.00000777,0.01250970,-0.01540301,-0.00000046,-0.00
 126220,-0.00323475,0.00004184,-0.00095814,-0.00086390,0.00027555,-0.00
 032395,0.00174262,0.00000104,0.00108330,-0.00026562,-0.00000787,0.1338
 7045,-0.00009085,-0.00115973,0.00162265,-0.00001046,-0.00247054,0.0036
 1941,0.00014328,0.12125177,-0.27607543,-0.00000747,0.01674134,-0.01838
 889,0.00000808,-0.00434476,-0.00339156,0.00002230,-0.00094744,0.000400
 34,0.00016122,0.00033517,0.00002679,-0.00000388,0.00030216,0.00091996,
 -0.00012697,-0.13042705,0.29139142,-0.00078987,-0.00004406,0.,0.007266
 13,0.00004677,0.00002979,-0.00110979,0.00000987,0.00000871,-0.02826557
 ,0.00010647,0.,-0.00110979,0.00000987,-0.00000871,0.00726613,0.0000467
 7,-0.00002979,-0.00062587,-0.00019432,0.,0.00061323,0.00000901,0.00001
 284,-0.00348565,0.00000419,-0.00000608,0.02331312,-0.00005664,0.000781
 40,0.,0.00001285,0.00067858,-0.00302285,0.00000257,-0.01138730,0.00315
 556,0.00015172,-0.34719204,0.,0.00000257,-0.01138730,-0.00315556,0.000
 01285,0.00067858,0.00302285,0.00002086,-0.00006038,0.,0.00001371,-0.00
 070900,0.00016486,0.00000013,0.00084514,-0.00025290,-0.00015098,0.3675
 2490,0.,0.,-0.00170517,-0.00002705,-0.00166779,-0.00474406,0.00003972,
 -0.02962972,0.00470465,0.,0.,-0.06036486,-0.00003972,0.02962972,0.0047
 0465,0.00002705,0.00166779,-0.00474406,0.,0.,0.00047193,0.00003002,-0.
 00160984,0.00008601,-0.00000441,0.00047499,0.00101368,0.,0.,0.05950403
 ,0.00827229,0.00013997,-0.00004491,-0.00081210,-0.00002589,0.00004601,
 0.00748465,-0.00002653,-0.00000528,0.00101733,-0.00003690,0.00004644,-
 0.03362640,0.00003527,-0.00019748,0.00062432,0.00007806,0.00011984,0.0
 0021898,-0.00014571,-0.00002708,-0.00108377,0.00000879,-0.00000443,0.0
 0024328,-0.00000344,-0.00000005,-0.00348565,0.00000013,0.00000441,0.02
 505269,-0.00021195,-0.00545286,0.00179164,0.00004184,-0.00095814,0.000
 86390,-0.00000046,-0.00126220,0.00323475,-0.00000777,0.01250970,0.0154
 0301,0.00005311,-0.12952876,-0.12087037,-0.00004597,-0.01101518,-0.029
 60048,0.00027555,-0.00032395,-0.00174262,-0.00000228,0.00013289,-0.000
 13188,-0.00000344,0.00055972,0.00091654,0.00000419,0.00084514,-0.00047
 499,-0.00000787,0.13387045,0.00009085,0.00115973,0.00162265,-0.0000223
 0,0.00094744,0.00040034,-0.00000808,0.00434476,-0.00339156,0.00000747,
 -0.01674134,-0.01838889,-0.00014328,-0.12125177,-0.27607543,0.00001046
 ,0.00247054,0.00361941,-0.00016122,-0.00033517,0.00002679,0.00000725,-
 0.00015417,0.00000446,0.00000005,-0.00091654,-0.00116000,0.00000608,0.
 00025290,0.00101368,0.00012697,0.13042705,0.29139142,0.00162566,0.0000
 5639,-0.00030683,0.00596698,-0.00008977,0.00007177,-0.00064029,0.00013
 939,0.00008657,0.00774285,0.00010082,-0.00006806,-0.00068464,0.0000330
 4,-0.00018326,-0.02910957,-0.00068859,0.00163016,-0.00261418,-0.000579
 45,0.00091315,0.00018811,-0.00003529,-0.00000676,-0.00108377,-0.000002
 28,-0.00000725,0.00061323,0.00001371,-0.00003002,-0.00375724,0.0000010
 4,0.00000388,0.02213450,-0.00001099,0.00968566,-0.01482885,-0.00001908
 ,-0.00127579,-0.00316056,-0.00002252,-0.00099876,-0.00092638,0.0000114
 8,-0.00554793,-0.00185869,-0.00016075,-0.01098672,0.03036701,-0.000178
 40,-0.12856322,0.11946807,-0.00018621,0.00229344,-0.00056293,-0.000035
 29,0.00065262,-0.00086392,0.00000879,0.00013289,0.00015417,0.00000901,
 -0.00070900,0.00160984,0.00002430,0.00108330,-0.00030216,0.00025125,0.
 13427004,0.00006940,0.01830226,-0.01997565,-0.00003117,-0.00430855,-0.
 00310304,-0.00001025,-0.00124890,0.00009174,0.00010644,-0.00051907,0.0
 0186423,0.00002014,-0.00221082,0.00373589,0.00112040,0.11920933,-0.271
 92988,-0.00041386,0.00096802,0.00184345,0.00000676,0.00086392,-0.00117
 760,0.00000443,0.00013188,0.00000446,-0.00001284,-0.00016486,0.0000860
 1,-0.00003118,0.00026562,0.00091996,-0.00151621,-0.12959479,0.28775934
 ,-0.00434844,-0.01376325,0.00625813,0.00171758,0.00040393,-0.00138062,
 0.00161778,-0.00171948,0.00025445,0.00001973,0.00078493,0.00086808,-0.
 00048092,0.00025881,-0.00035743,-0.00011004,0.00076739,0.00057324,-0.0
 7487197,0.09788117,-0.15367623,-0.00060968,-0.00005596,-0.00008108,-0.
 00014486,-0.00011764,-0.00003564,-0.00009982,-0.00001174,0.00003318,-0
 .00000351,0.00002167,0.00004624,0.00022802,0.00036437,0.00060685,0.074
 32686,0.01465628,-0.01816561,0.03657900,0.00076466,-0.00629895,-0.0032
 0459,-0.00059982,0.00004167,0.00207183,0.00016013,0.00049131,-0.000469
 37,-0.00076697,-0.00064496,0.00006533,-0.00076310,0.00278656,0.0021170
 0,0.07053186,-0.12245450,0.11724188,0.00012703,0.00013169,0.00008944,-
 0.00004664,-0.00054579,-0.00007240,0.00007162,0.00004566,-0.00011954,0
 .00000646,0.00008568,0.00002634,0.00067271,-0.00016819,-0.00160460,-0.
 07591048,0.13593299,0.00057395,0.00196649,0.00201751,-0.00043413,-0.00
 094830,0.00154137,0.00010840,0.00028095,-0.00013392,0.00009412,-0.0005
 6754,0.00013802,0.00103960,0.00067862,-0.00040716,0.00037371,-0.003612
 23,0.00160914,-0.11413229,0.12284398,-0.32346882,-0.00018029,-0.000125
 55,0.00038601,-0.00001200,0.00002526,0.00005192,-0.00023153,0.00004457
 ,-0.00001323,-0.00004525,-0.00005692,-0.00003475,-0.00076743,0.0003736
 4,-0.00050492,0.13025199,-0.13681165,0.34041467,-0.00434844,-0.0137632
 5,-0.00625813,-0.00011004,0.00076739,-0.00057324,-0.00048092,0.0002588
 1,0.00035743,0.00001973,0.00078493,-0.00086808,0.00161778,-0.00171948,
 -0.00025445,0.00171758,0.00040393,0.00138062,-0.07487197,0.09788117,0.
 15367623,0.00022802,0.00036437,-0.00060685,-0.00000351,0.00002167,-0.0
 0004624,-0.00009982,-0.00001174,-0.00003318,-0.00014486,-0.00011764,0.
 00003564,-0.00060968,-0.00005596,0.00008108,0.00275926,-0.00890373,-0.
 01663884,0.07432686,0.01465628,-0.01816561,-0.03657900,-0.00076310,0.0
 0278656,-0.00211700,-0.00076697,-0.00064496,-0.00006533,0.00016013,0.0
 0049131,0.00046937,-0.00059982,0.00004167,-0.00207183,0.00076466,-0.00
 629895,0.00320459,0.07053186,-0.12245450,-0.11724188,0.00067271,-0.000
 16819,0.00160460,0.00000646,0.00008568,-0.00002634,0.00007162,0.000045
 66,0.00011954,-0.00004664,-0.00054579,0.00007240,0.00012703,0.00013169
 ,-0.00008944,-0.00890373,0.00876245,0.01590869,-0.07591048,0.13593299,
 -0.00057395,-0.00196649,0.00201751,-0.00037371,0.00361223,0.00160914,-
 0.00103960,-0.00067862,-0.00040716,-0.00009412,0.00056754,0.00013802,-
 0.00010840,-0.00028095,-0.00013392,0.00043413,0.00094830,0.00154137,0.
 11413228,-0.12284398,-0.32346882,0.00076743,-0.00037364,-0.00050492,0.
 00004525,0.00005692,-0.00003475,0.00023153,-0.00004457,-0.00001323,0.0
 0001200,-0.00002526,0.00005192,0.00018029,0.00012555,0.00038601,0.0166
 3884,-0.01590869,-0.02159582,-0.13025199,0.13681165,0.34041467\\0.0000
 1005,0.00019706,0.,-0.00000311,-0.00009158,0.00000465,0.00000769,0.000
 03380,-0.00001628,-0.00000600,0.00002153,0.,0.00000769,0.00003380,0.00
 001628,-0.00000311,-0.00009158,-0.00000465,0.00000890,-0.00016869,0.,-
 0.00000577,0.00001191,-0.00000373,-0.00000176,0.00000738,-0.00000383,0
 .00000392,0.00000609,0.,-0.00000176,0.00000738,0.00000383,-0.00000577,
 0.00001191,0.00000373,-0.00000549,0.00001050,0.00000817,-0.00000549,0.
 00001050,-0.00000817\\\@


 NEVER LISTEN TO CRITICISM
 OR YOU'LL BE DOIN' EVERYBODY ELSE'S THING BUT BUT YOUR OWN.

                                               -- ANDY CAPP
 Job cpu time:  0 days  0 hours 34 minutes 17.8 seconds.
 File lengths (MBytes):  RWF=   1434 Int=      0 D2E=      0 Chk=      2 Scr=      1
 Normal termination of Gaussian 09 at Mon Jan  9 17:03:33 2012.
