 vasp.5.4.1 24Jun15 (build Dec 04 2015 16:58:54) complex

 executed on           IFC91_ompi date 2017.12.30  04:54:02
 running on   32 total cores
 distrk:  each k-point on   32 cores,    1 groups
 distr:  one band on NCORES_PER_BAND=   4 cores,    8 groups


--------------------------------------------------------------------------------------------------------


 INCAR:
 POTCAR:   PAW_PBE Cu 05Jan2001
 POTCAR:   PAW_PBE Rh 06Sep2000
 POTCAR:   PAW_PBE C 08Apr2002
 POTCAR:   PAW_PBE H 15Jun2001

 -----------------------------------------------------------------------------
|                                                                             |
|  ADVICE TO THIS USER RUNNING 'VASP/VAMP'   (HEAR YOUR MASTER'S VOICE ...):  |
|                                                                             |
|      You have switched on vdW-DFT.                                          |
|      This routine was written and supplied by Jiri Klimes.                  |
|      We recommed that you carefully read and cite the following             |
|      publication                                                            |
|      J. Klimes, D.R. Bowler, A. Michelides                                  |
|        J. Phys.: Cond Matt. 22 022201 (2010)                                |
|      J. Klimes, D.R. Bowler, A. Michelides                                  |
|        Phys. Rev. B. 83, 195131 (2011)                                      |
|      and references therein.                                                |
|                                                                             |
 -----------------------------------------------------------------------------

 POTCAR:   PAW_PBE Cu 05Jan2001
  local pseudopotential read in
  partial core-charges read in
  atomic valenz-charges read in
  non local Contribution for L=           2  read in
    real space projection operators read in
  non local Contribution for L=           2  read in
    real space projection operators read in
  non local Contribution for L=           0  read in
    real space projection operators read in
  non local Contribution for L=           0  read in
    real space projection operators read in
  non local Contribution for L=           1  read in
    real space projection operators read in
  non local Contribution for L=           1  read in
    real space projection operators read in
    PAW grid and wavefunctions read in

   number of l-projection  operators is LMAX  =           6
   number of lm-projection operators is LMMAX =          18

 POTCAR:   PAW_PBE Rh 06Sep2000
  local pseudopotential read in
  partial core-charges read in
  atomic valenz-charges read in
  non local Contribution for L=           2  read in
    real space projection operators read in
  non local Contribution for L=           2  read in
    real space projection operators read in
  non local Contribution for L=           0  read in
    real space projection operators read in
  non local Contribution for L=           0  read in
    real space projection operators read in
  non local Contribution for L=           1  read in
    real space projection operators read in
  non local Contribution for L=           1  read in
    real space projection operators read in
    PAW grid and wavefunctions read in

   number of l-projection  operators is LMAX  =           6
   number of lm-projection operators is LMMAX =          18

 POTCAR:   PAW_PBE C 08Apr2002
  local pseudopotential read in
  atomic valenz-charges read in
  non local Contribution for L=           0  read in
    real space projection operators read in
  non local Contribution for L=           0  read in
    real space projection operators read in
  non local Contribution for L=           1  read in
    real space projection operators read in
  non local Contribution for L=           1  read in
    real space projection operators read in
    PAW grid and wavefunctions read in

   number of l-projection  operators is LMAX  =           4
   number of lm-projection operators is LMMAX =           8

 POTCAR:   PAW_PBE H 15Jun2001
  local pseudopotential read in
  atomic valenz-charges read in
  non local Contribution for L=           0  read in
    real space projection operators read in
  non local Contribution for L=           0  read in
    real space projection operators read in
  non local Contribution for L=           1  read in
    real space projection operators read in
    PAW grid and wavefunctions read in

   number of l-projection  operators is LMAX  =           3
   number of lm-projection operators is LMMAX =           5

 Optimization of the real space projectors (new method)

 maximal supplied QI-value         = 16.25
 optimisation between [QCUT,QGAM] = [ 10.24, 20.48] = [ 29.35,117.42] Ry
 Optimized for a Real-space Cutoff    1.55 Angstroem

   l    n(q)    QCUT    max X(q) W(low)/X(q) W(high)/X(q)  e(spline)
   2      9    10.239     4.977    0.78E-05    0.33E-04    0.53E-07
   2      9    10.239    13.467    0.10E-03    0.30E-03    0.20E-06
   0     10    10.239    13.303    0.19E-04    0.19E-05    0.69E-08
   0     10    10.239    44.613    0.65E-04    0.24E-05    0.85E-07
   1      9    10.239     5.276    0.25E-04    0.19E-04    0.22E-07
   1      9    10.239     7.322    0.84E-04    0.97E-04    0.11E-06
 Optimization of the real space projectors (new method)

 maximal supplied QI-value         = 15.12
 optimisation between [QCUT,QGAM] = [ 10.13, 20.41] = [ 28.73,116.64] Ry
 Optimized for a Real-space Cutoff    1.70 Angstroem

   l    n(q)    QCUT    max X(q) W(low)/X(q) W(high)/X(q)  e(spline)
   2      9    10.129     3.971    0.16E-04    0.22E-05    0.64E-07
   2      9    10.129    27.544    0.10E-03    0.24E-04    0.29E-06
   0     10    10.129    20.781    0.20E-04    0.19E-06    0.11E-07
   0     10    10.129    69.103    0.45E-04    0.21E-04    0.91E-07
   1     10    10.129     7.864    0.65E-05    0.54E-05    0.31E-07
   1     10    10.129    10.811    0.30E-04    0.39E-05    0.12E-06
 Optimization of the real space projectors (new method)

 maximal supplied QI-value         = 25.13
 optimisation between [QCUT,QGAM] = [ 10.05, 20.36] = [ 28.30,116.06] Ry
 Optimized for a Real-space Cutoff    1.51 Angstroem

   l    n(q)    QCUT    max X(q) W(low)/X(q) W(high)/X(q)  e(spline)
   0      9    10.053     5.582    0.29E-04    0.95E-05    0.10E-06
   0      9    10.053    69.432    0.19E-03    0.21E-03    0.38E-06
   1      9    10.053     2.780    0.26E-04    0.49E-04    0.22E-06
   1      9    10.053     4.549    0.59E-04    0.62E-04    0.43E-06
 Optimization of the real space projectors (new method)

 maximal supplied QI-value         = 34.20
 optimisation between [QCUT,QGAM] = [  9.92, 20.18] = [ 27.55,114.04] Ry
 Optimized for a Real-space Cutoff    1.34 Angstroem

   l    n(q)    QCUT    max X(q) W(low)/X(q) W(high)/X(q)  e(spline)
   0      8     9.919     4.436    0.31E-04    0.59E-04    0.66E-07
   0      8     9.919    16.131    0.16E-03    0.20E-03    0.35E-06
   1      8     9.919     4.654    0.19E-03    0.46E-03    0.40E-06

 -----------------------------------------------------------------------------
|                                                                             |
|  ADVICE TO THIS USER RUNNING 'VASP/VAMP'   (HEAR YOUR MASTER'S VOICE ...):  |
|                                                                             |
|      You enforced a specific xc-type in the INCAR file,                     |
|      a different type was found on the POTCAR file                          |
|          I HOPE YOU KNOW, WHAT YOU ARE  DOING                               |
|                                                                             |
 -----------------------------------------------------------------------------

 PAW_PBE Cu 05Jan2001                   :
 energy of atom  1       EATOM=-1390.9800
 kinetic energy error for atom=    0.0117 (will be added to EATOM!!)
 PAW_PBE Rh 06Sep2000                   :
 energy of atom  2       EATOM= -616.5493
 kinetic energy error for atom=    0.0043 (will be added to EATOM!!)
 PAW_PBE C 08Apr2002                    :
 energy of atom  3       EATOM= -147.1560
 kinetic energy error for atom=    0.0288 (will be added to EATOM!!)
 PAW_PBE H 15Jun2001                    :
 energy of atom  4       EATOM=  -12.4884
 kinetic energy error for atom=    0.0098 (will be added to EATOM!!)


 POSCAR: POSCAR file for Cu_3x3x5.xsd | Created o
  positions in direct lattice
  velocities in cartesian coordinates
 exchange correlation table for  LEXCH =       43
   RHO(1)=    0.500       N(1)  =     2000
   RHO(2)=  100.500       N(2)  =     4000

 VTST: version 3.1, (03/28/14)

 CHAIN: initializing optimizer

 OPT: Using VASP QUASI-newton optimizer
 CHAIN: Read ICHAIN            0

 POSCAR: POSCAR file for Cu_3x3x5.xsd | Created o
  positions in direct lattice
  velocities in cartesian coordinates



--------------------------------------------------------------------------------------------------------


 ion  position               nearest neighbor table
   1  0.222  0.111  0.000-   2 2.55   7 2.55   5 2.55   9 2.55   4 2.55   3 2.55  10 2.55  14 2.55
                            13 2.55
   2  0.222  0.444  0.000-   1 2.55   8 2.55   7 2.55   3 2.55   5 2.55   6 2.55  11 2.55  14 2.55
                            15 2.55
   3  0.222  0.778  0.000-   9 2.55   8 2.55   6 2.55   1 2.55   2 2.55   4 2.55  12 2.55  13 2.55
                            15 2.55
   4  0.556  0.111  0.000-   5 2.55   8 2.55   6 2.55   7 2.55   1 2.55   3 2.55  13 2.55  16 2.55
                            17 2.55
   5  0.556  0.444  0.000-   4 2.55   1 2.55  17 2.55   6 2.55   8 2.55   2 2.55   9 2.55  14 2.55
                            18 2.55
   6  0.556  0.778  0.000-   3 2.55   4 2.55   5 2.55   9 2.55   7 2.55   2 2.55  15 2.55  16 2.55
                            18 2.55
   7  0.889  0.111  0.000-   1 2.55   8 2.55   2 2.55   4 2.55   9 2.55   6 2.55  10 2.55  11 2.55
                            16 2.55
   8  0.889  0.444  0.000-   2 2.55   7 2.55   4 2.55   3 2.55  11 2.55   9 2.55   5 2.55  12 2.55
                            17 2.55
   9  0.889  0.778  0.000-   3 2.55   1 2.55   6 2.55   7 2.55   8 2.55   5 2.55  10 2.55  12 2.55
                            18 2.55
  10  0.000  0.000  0.114-  21 2.54  38 2.55  13 2.55  16 2.55  11 2.55  12 2.55  14 2.55  18 2.55
                             9 2.55   1 2.55   7 2.55  44 2.55
  11  0.000  0.333  0.114-  21 2.54  12 2.55  15 2.55   8 2.55  10 2.55  17 2.55  14 2.55  16 2.55
                             2 2.55   7 2.55  27 2.55  30 2.56
  12  0.000  0.667  0.114-  35 2.55  30 2.55  11 2.55  17 2.55  18 2.55  15 2.55  10 2.55  13 2.55
                             9 2.55   3 2.55   8 2.55  38 2.56
  13  0.333  0.000  0.114-  24 2.54  41 2.55  16 2.55  17 2.55  14 2.55  15 2.55  10 2.55  12 2.55
                             3 2.55   4 2.55   1 2.55  38 2.55
  14  0.333  0.333  0.114-  24 2.54  21 2.55  32 2.55  17 2.55  15 2.55  18 2.55  11 2.55  13 2.55
                            10 2.55   1 2.55   2 2.55   5 2.55
  15  0.333  0.667  0.114-  32 2.54  18 2.55  14 2.55  11 2.55  16 2.55  12 2.55  13 2.55   6 2.55
                             2 2.55   3 2.55  30 2.55  41 2.55
  16  0.667  0.000  0.114-  44 2.55  13 2.55  15 2.55  17 2.55  18 2.55  10 2.55  11 2.55   6 2.55
                             4 2.55   7 2.55  41 2.55  27 2.56
  17  0.667  0.333  0.114-  24 2.54  27 2.55  35 2.55  18 2.55  14 2.55  13 2.55  12 2.55   5 2.55
                            11 2.55  16 2.55   4 2.55   8 2.55
  18  0.667  0.667  0.114-  35 2.54  32 2.55  15 2.55  17 2.55  14 2.55  16 2.55  12 2.55  10 2.55
                             5 2.55   6 2.55   9 2.55  44 2.56
  19  0.993  0.996  0.453-  42 2.49  43 2.52  25 2.53  26 2.53  36 2.53  20 2.57  28 2.58  22 2.59
                            45 2.60
  20  0.222  0.114  0.340-  29 2.53  31 2.54  26 2.54  21 2.55  38 2.55  23 2.55  24 2.55  37 2.56
                            22 2.56  43 2.57  19 2.57  45 2.67
  21  0.110  0.223  0.227-  11 2.54  10 2.54  14 2.55  20 2.55  27 2.55  44 2.55  29 2.55  26 2.55
                            38 2.55  30 2.55  32 2.55  24 2.55
  22  0.332  0.997  0.454-  39 2.50  36 2.53  37 2.53  25 2.54  23 2.55  20 2.56  33 2.58  45 2.58
                            19 2.59
  23  0.554  0.113  0.340-  25 2.54  24 2.54  31 2.54  37 2.55  20 2.55  41 2.55  27 2.55  34 2.55
                            22 2.55  33 2.55  26 2.56  40 2.57
  24  0.444  0.223  0.227-  31 2.54  14 2.54  23 2.54  13 2.54  17 2.54  20 2.55  38 2.55  41 2.55
                            27 2.55  21 2.55  35 2.56  32 2.56
  25  0.665  0.001  0.453-  19 2.53  28 2.53  23 2.54  40 2.54  22 2.54  39 2.54  26 2.54  33 2.55
                            42 2.55
  26  0.889  0.113  0.340-  19 2.53  28 2.54  25 2.54  27 2.54  29 2.54  20 2.54  44 2.54  21 2.55
                            34 2.55  43 2.55  23 2.56  40 2.57
  27  0.778  0.223  0.227-  26 2.54  34 2.54  21 2.55  23 2.55  30 2.55  17 2.55  44 2.55  11 2.55
                            35 2.55  24 2.55  41 2.56  16 2.56
  28  0.994  0.333  0.453-  33 2.49  34 2.53  25 2.53  26 2.54  36 2.54  29 2.57  19 2.58  39 2.59
                            45 2.59
  29  0.222  0.444  0.340-  20 2.53  26 2.54  30 2.54  31 2.54  21 2.55  40 2.55  32 2.55  34 2.56
                            37 2.56  39 2.57  28 2.57  45 2.67
  30  0.111  0.556  0.227-  37 2.54  29 2.54  34 2.55  12 2.55  32 2.55  27 2.55  41 2.55  38 2.55
                            35 2.55  21 2.55  15 2.55  11 2.56
  31  0.555  0.445  0.339-  32 2.53  35 2.54  24 2.54  40 2.54  20 2.54  29 2.54  23 2.54  43 2.55
                            34 2.55  33 2.58  42 2.58  45 2.70
  32  0.444  0.557  0.227-  31 2.53  15 2.54  40 2.55  18 2.55  14 2.55  41 2.55  29 2.55  30 2.55
                            44 2.55  21 2.55  35 2.55  24 2.56
  33  0.669  0.335  0.454-  28 2.49  34 2.54  36 2.55  25 2.55  23 2.55  42 2.56  31 2.58  22 2.58
                            45 2.58
  34  0.888  0.445  0.340-  28 2.53  33 2.54  36 2.54  27 2.54  35 2.54  30 2.55  23 2.55  43 2.55
                            31 2.55  26 2.55  37 2.56  29 2.56
  35  0.778  0.556  0.227-  31 2.54  18 2.54  34 2.54  43 2.55  12 2.55  17 2.55  30 2.55  38 2.55
                            44 2.55  27 2.55  32 2.55  24 2.56
  36  0.000  0.668  0.453-  39 2.53  22 2.53  19 2.53  28 2.54  43 2.54  34 2.54  37 2.54  33 2.55
                            42 2.55
  37  0.223  0.779  0.340-  39 2.53  22 2.53  41 2.54  38 2.54  30 2.54  36 2.54  23 2.55  40 2.55
                            34 2.56  20 2.56  29 2.56  43 2.56
  38  0.111  0.890  0.227-  37 2.54  20 2.55  43 2.55  24 2.55  44 2.55  41 2.55  10 2.55  30 2.55
                            35 2.55  21 2.55  13 2.55  12 2.56
  39  0.332  0.671  0.454-  22 2.50  36 2.53  37 2.53  25 2.54  40 2.55  29 2.57  42 2.58  45 2.58
                            28 2.59
  40  0.554  0.777  0.340-  25 2.54  31 2.54  32 2.55  37 2.55  41 2.55  43 2.55  44 2.55  29 2.55
                            39 2.55  42 2.56  26 2.57  23 2.57
  41  0.444  0.890  0.227-  37 2.54  40 2.55  23 2.55  13 2.55  24 2.55  32 2.55  30 2.55  38 2.55
                            16 2.55  15 2.55  44 2.55  27 2.56
  42  0.668  0.669  0.455-  19 2.49  36 2.55  43 2.55  25 2.55  40 2.56  33 2.56  45 2.58  31 2.58
                            39 2.58
  43  0.887  0.778  0.340-  19 2.52  44 2.54  36 2.54  40 2.55  35 2.55  31 2.55  38 2.55  34 2.55
                            42 2.55  26 2.55  37 2.56  20 2.57
  44  0.778  0.890  0.227-  43 2.54  26 2.54  21 2.55  40 2.55  16 2.55  38 2.55  27 2.55  35 2.55
                            10 2.55  32 2.55  41 2.55  18 2.56
  45  0.331  0.334  0.462-  48 1.63  46 2.22  42 2.58  33 2.58  39 2.58  22 2.58  28 2.59  19 2.60
                            29 2.67  20 2.67  31 2.70
  46  0.313  0.321  0.583-  47 1.10  49 1.10  50 1.10  45 2.22
  47  0.321  0.458  0.606-  46 1.10
  48  0.499  0.432  0.527-  45 1.63
  49  0.411  0.281  0.614-  46 1.10
  50  0.157  0.194  0.585-  46 1.10

  LATTYP: Found a hexagonal cell.
 ALAT       =     7.6549965918
 C/A-ratio  =     2.3949984178

  Lattice vectors:

 A1 = (   5.4129000000,  -5.4129000000,  -0.0000000000)
 A2 = (   0.0000000000,   5.4129000000,  -5.4129000000)
 A3 = (  10.5849693586,  10.5849693586,  10.5849693586)


Analysis of symmetry for initial positions (statically):
=====================================================================
 Subroutine PRICEL returns:
 Original cell was already a primitive cell.


 Routine SETGRP: Setting up the symmetry group for a
 hexagonal supercell.


 Subroutine GETGRP returns: Found  1 space group operations
 (whereof  1 operations were pure point group operations)
 out of a pool of 24 trial point group operations.


The static configuration has the point symmetry C_1 .


Analysis of symmetry for dynamics (positions and initial velocities):
=====================================================================
 Subroutine PRICEL returns:
 Original cell was already a primitive cell.


 Routine SETGRP: Setting up the symmetry group for a
 hexagonal supercell.


 Subroutine GETGRP returns: Found  1 space group operations
 (whereof  1 operations were pure point group operations)
 out of a pool of 24 trial point group operations.


The dynamic configuration has the point symmetry C_1 .


Analysis of constrained symmetry for selective dynamics:
=====================================================================
 Subroutine PRICEL returns:
 Original cell was already a primitive cell.


 Routine SETGRP: Setting up the symmetry group for a
 hexagonal supercell.


 Subroutine GETGRP returns: Found  1 space group operations
 (whereof  1 operations were pure point group operations)
 out of a pool of 24 trial point group operations.


The constrained configuration has the point symmetry C_1 .


 KPOINTS: K-Point Grid Created by Matt Darby on 30

Automatic generation of k-mesh.
Space group operators:
 irot       det(A)        alpha          n_x          n_y          n_z        tau_x        tau_y        tau_z
    1     1.000000     0.000000     1.000000     0.000000     0.000000     0.000000     0.000000     0.000000

 Subroutine IBZKPT returns following result:
 ===========================================

 Found     85 irreducible k-points:

 Following reciprocal coordinates:
            Coordinates               Weight
  0.000000  0.000000  0.000000      1.000000
  0.076923  0.000000  0.000000      2.000000
  0.153846  0.000000  0.000000      2.000000
  0.230769  0.000000  0.000000      2.000000
  0.307692  0.000000  0.000000      2.000000
  0.384615  0.000000  0.000000      2.000000
  0.461538  0.000000  0.000000      2.000000
  0.000000  0.076923  0.000000      2.000000
  0.076923  0.076923  0.000000      2.000000
  0.153846  0.076923  0.000000      2.000000
  0.230769  0.076923 -0.000000      2.000000
  0.307692  0.076923  0.000000      2.000000
  0.384615  0.076923 -0.000000      2.000000
  0.461538  0.076923 -0.000000      2.000000
 -0.461538  0.076923 -0.000000      2.000000
 -0.384615  0.076923 -0.000000      2.000000
 -0.307692  0.076923 -0.000000      2.000000
 -0.230769  0.076923  0.000000      2.000000
 -0.153846  0.076923 -0.000000      2.000000
 -0.076923  0.076923  0.000000      2.000000
 -0.000000  0.153846 -0.000000      2.000000
  0.076923  0.153846  0.000000      2.000000
  0.153846  0.153846  0.000000      2.000000
  0.230769  0.153846  0.000000      2.000000
  0.307692  0.153846  0.000000      2.000000
  0.384615  0.153846  0.000000      2.000000
  0.461538  0.153846  0.000000      2.000000
 -0.461538  0.153846  0.000000      2.000000
 -0.384615  0.153846  0.000000      2.000000
 -0.307692  0.153846 -0.000000      2.000000
 -0.230769  0.153846  0.000000      2.000000
 -0.153846  0.153846 -0.000000      2.000000
 -0.076923  0.153846 -0.000000      2.000000
 -0.000000  0.230769  0.000000      2.000000
  0.076923  0.230769 -0.000000      2.000000
  0.153846  0.230769  0.000000      2.000000
  0.230769  0.230769  0.000000      2.000000
  0.307692  0.230769  0.000000      2.000000
  0.384615  0.230769 -0.000000      2.000000
  0.461538  0.230769  0.000000      2.000000
 -0.461538  0.230769  0.000000      2.000000
 -0.384615  0.230769 -0.000000      2.000000
 -0.307692  0.230769  0.000000      2.000000
 -0.230769  0.230769 -0.000000      2.000000
 -0.153846  0.230769  0.000000      2.000000
 -0.076923  0.230769  0.000000      2.000000
 -0.000000  0.307692  0.000000      2.000000
  0.076923  0.307692  0.000000      2.000000
  0.153846  0.307692  0.000000      2.000000
  0.230769  0.307692  0.000000      2.000000
  0.307692  0.307692  0.000000      2.000000
  0.384615  0.307692  0.000000      2.000000
  0.461538  0.307692  0.000000      2.000000
 -0.461538  0.307692  0.000000      2.000000
 -0.384615  0.307692  0.000000      2.000000
 -0.307692  0.307692  0.000000      2.000000
 -0.230769  0.307692  0.000000      2.000000
 -0.153846  0.307692  0.000000      2.000000
 -0.076923  0.307692  0.000000      2.000000
 -0.000000  0.384615  0.000000      2.000000
  0.076923  0.384615 -0.000000      2.000000
  0.153846  0.384615  0.000000      2.000000
  0.230769  0.384615 -0.000000      2.000000
  0.307692  0.384615  0.000000      2.000000
  0.384615  0.384615  0.000000      2.000000
  0.461538  0.384615  0.000000      2.000000
 -0.461538  0.384615  0.000000      2.000000
 -0.384615  0.384615  0.000000      2.000000
 -0.307692  0.384615  0.000000      2.000000
 -0.230769  0.384615 -0.000000      2.000000
 -0.153846  0.384615  0.000000      2.000000
 -0.076923  0.384615 -0.000000      2.000000
 -0.000000  0.461538  0.000000      2.000000
  0.076923  0.461538  0.000000      2.000000
  0.153846  0.461538  0.000000      2.000000
  0.230769  0.461538  0.000000      2.000000
  0.307692  0.461538  0.000000      2.000000
  0.384615  0.461538  0.000000      2.000000
  0.461538  0.461538  0.000000      2.000000
 -0.461538  0.461538 -0.000000      2.000000
 -0.384615  0.461538  0.000000      2.000000
 -0.307692  0.461538  0.000000      2.000000
 -0.230769  0.461538  0.000000      2.000000
 -0.153846  0.461538 -0.000000      2.000000
 -0.076923  0.461538  0.000000      2.000000

 Following cartesian coordinates:
            Coordinates               Weight
  0.000000  0.000000  0.000000      1.000000
  0.009474 -0.004737 -0.004737      2.000000
  0.018948 -0.009474 -0.009474      2.000000
  0.028422 -0.014211 -0.014211      2.000000
  0.037896 -0.018948 -0.018948      2.000000
  0.047370 -0.023685 -0.023685      2.000000
  0.056844 -0.028422 -0.028422      2.000000
  0.004737  0.004737 -0.009474      2.000000
  0.014211  0.000000 -0.014211      2.000000
  0.023685 -0.004737 -0.018948      2.000000
  0.033159 -0.009474 -0.023685      2.000000
  0.042633 -0.014211 -0.028422      2.000000
  0.052107 -0.018948 -0.033159      2.000000
  0.061581 -0.023685 -0.037896      2.000000
 -0.052107  0.033159  0.018948      2.000000
 -0.042633  0.028422  0.014211      2.000000
 -0.033159  0.023685  0.009474      2.000000
 -0.023685  0.018948  0.004737      2.000000
 -0.014211  0.014211  0.000000      2.000000
 -0.004737  0.009474 -0.004737      2.000000
  0.009474  0.009474 -0.018948      2.000000
  0.018948  0.004737 -0.023685      2.000000
  0.028422  0.000000 -0.028422      2.000000
  0.037896 -0.004737 -0.033159      2.000000
  0.047370 -0.009474 -0.037896      2.000000
  0.056844 -0.014211 -0.042633      2.000000
  0.066318 -0.018948 -0.047370      2.000000
 -0.047370  0.037896  0.009474      2.000000
 -0.037896  0.033159  0.004737      2.000000
 -0.028422  0.028422 -0.000000      2.000000
 -0.018948  0.023685 -0.004737      2.000000
 -0.009474  0.018948 -0.009474      2.000000
  0.000000  0.014211 -0.014211      2.000000
  0.014211  0.014211 -0.028422      2.000000
  0.023685  0.009474 -0.033159      2.000000
  0.033159  0.004737 -0.037896      2.000000
  0.042633  0.000000 -0.042633      2.000000
  0.052107 -0.004737 -0.047370      2.000000
  0.061581 -0.009474 -0.052107      2.000000
  0.071055 -0.014211 -0.056844      2.000000
 -0.042633  0.042633  0.000000      2.000000
 -0.033159  0.037896 -0.004737      2.000000
 -0.023685  0.033159 -0.009474      2.000000
 -0.014211  0.028422 -0.014211      2.000000
 -0.004737  0.023685 -0.018948      2.000000
  0.004737  0.018948 -0.023685      2.000000
  0.018948  0.018948 -0.037896      2.000000
  0.028422  0.014211 -0.042633      2.000000
  0.037896  0.009474 -0.047370      2.000000
  0.047370  0.004737 -0.052107      2.000000
  0.056844  0.000000 -0.056844      2.000000
  0.066318 -0.004737 -0.061581      2.000000
  0.075792 -0.009474 -0.066318      2.000000
 -0.037896  0.047370 -0.009474      2.000000
 -0.028422  0.042633 -0.014211      2.000000
 -0.018948  0.037896 -0.018948      2.000000
 -0.009474  0.033159 -0.023685      2.000000
 -0.000000  0.028422 -0.028422      2.000000
  0.009474  0.023685 -0.033159      2.000000
  0.023685  0.023685 -0.047370      2.000000
  0.033159  0.018948 -0.052107      2.000000
  0.042633  0.014211 -0.056844      2.000000
  0.052107  0.009474 -0.061581      2.000000
  0.061581  0.004737 -0.066318      2.000000
  0.071055  0.000000 -0.071055      2.000000
  0.080529 -0.004737 -0.075792      2.000000
 -0.033159  0.052107 -0.018948      2.000000
 -0.023685  0.047370 -0.023685      2.000000
 -0.014211  0.042633 -0.028422      2.000000
 -0.004737  0.037896 -0.033159      2.000000
  0.004737  0.033159 -0.037896      2.000000
  0.014211  0.028422 -0.042633      2.000000
  0.028422  0.028422 -0.056844      2.000000
  0.037896  0.023685 -0.061581      2.000000
  0.047370  0.018948 -0.066318      2.000000
  0.056844  0.014211 -0.071055      2.000000
  0.066318  0.009474 -0.075792      2.000000
  0.075792  0.004737 -0.080529      2.000000
  0.085266  0.000000 -0.085266      2.000000
 -0.028422  0.056844 -0.028422      2.000000
 -0.018948  0.052107 -0.033159      2.000000
 -0.009474  0.047370 -0.037896      2.000000
  0.000000  0.042633 -0.042633      2.000000
  0.009474  0.037896 -0.047370      2.000000
  0.018948  0.033159 -0.052107      2.000000



--------------------------------------------------------------------------------------------------------




 Dimension of arrays:
   k-points           NKPTS =     85   k-points in BZ     NKDIM =     85   number of bands    NBANDS=    304
   number of dos      NEDOS =    301   number of ions     NIONS =     50
   non local maximal  LDIM  =      6   non local SUM 2l+1 LMDIM =     18
   total plane-waves  NPLWV = 300000
   max r-space proj   IRMAX =   6660   max aug-charges    IRDMAX=  18523
   dimension x,y,z NGX =    50 NGY =   50 NGZ =  120
   dimension x,y,z NGXF=   100 NGYF=  100 NGZF=  240
   support grid    NGXF=   100 NGYF=  100 NGZF=  240
   ions per type =              44   1   1   4
 NGX,Y,Z   is equivalent  to a cutoff of  10.86, 10.86, 10.88 a.u.
 NGXF,Y,Z  is equivalent  to a cutoff of  21.72, 21.72, 21.76 a.u.


 I would recommend the setting:
   dimension x,y,z NGX =    50 NGY =   50 NGZ =  120
 SYSTEM =  unknown system
 POSCAR =  POSCAR file for Cu_3x3x5.xsd | Created o

 Startparameter for this run:
   NWRITE =      1    write-flag & timer
   PREC   = accura    normal or accurate (medium, high low for compatibility)
   ISTART =      0    job   : 0-new  1-cont  2-samecut
   ICHARG =      2    charge: 1-file 2-atom 10-const
   ISPIN  =      1    spin polarized calculation?
   LNONCOLLINEAR =      F non collinear calculations
   LSORBIT =      F    spin-orbit coupling
   INIWAV =      1    electr: 0-lowe 1-rand  2-diag
   LASPH  =      F    aspherical Exc in radial PAW
   METAGGA=      F    non-selfconsistent MetaGGA calc.

 Electronic Relaxation 1
   ENCUT  =  400.0 eV  29.40 Ry    5.42 a.u.  12.48 12.48 29.90*2*pi/ulx,y,z
   ENINI  =  400.0     initial cutoff
   ENAUG  =  644.9 eV  augmentation charge cutoff
   NELM   =    100;   NELMIN=  2; NELMDL=-10     # of ELM steps
   EDIFF  = 0.1E-06   stopping-criterion for ELM
   LREAL  =      T    real-space projection
   NLSPLINE    = F    spline interpolate recip. space projectors
   LCOMPAT=      F    compatible to vasp.4.4
   GGA_COMPAT  = T    GGA compatible to vasp.4.4-vasp.4.6
   LMAXPAW     = -100 max onsite density
   LMAXMIX     =    2 max onsite mixed and CHGCAR
   VOSKOWN=      1    Vosko Wilk Nusair interpolation
   ROPT   =   -0.00020  -0.00020  -0.00020  -0.00020
 Ionic relaxation
   EDIFFG = -.1E-01   stopping-criterion for IOM
   NSW    =    200    number of steps for IOM
   NBLOCK =      1;   KBLOCK =    200    inner block; outer block
   IBRION =      1    ionic relax: 0-MD 1-quasi-New 2-CG
   NFREE  =     10    steps in history (QN), initial steepest desc. (CG)
   ISIF   =      2    stress and relaxation
   IWAVPR =     11    prediction:  0-non 1-charg 2-wave 3-comb
   ISYM   =      2    0-nonsym 1-usesym 2-fastsym
   LCORR  =      T    Harris-Foulkes like correction to forces

   POTIM  = 0.1250    time-step for ionic-motion
   TEIN   =    0.0    initial temperature
   TEBEG  =    0.0;   TEEND  =   0.0 temperature during run
   SMASS  =  -3.00    Nose mass-parameter (am)
   estimated Nose-frequenzy (Omega)   =  0.10E-29 period in steps =****** mass=  -0.134E-26a.u.
   SCALEE = 1.0000    scale energy and forces
   NPACO  =    256;   APACO  = 16.0  distance and # of slots for P.C.
   PSTRESS=    0.0 pullay stress

  Mass of Ions in am
   POMASS =  63.55102.91 12.01  1.00
  Ionic Valenz
   ZVAL   =  11.00  9.00  4.00  1.00
  Atomic Wigner-Seitz radii
   RWIGS  =  -1.00 -1.00 -1.00 -1.00
  virtual crystal weights
   VCA    =   1.00  1.00  1.00  1.00
   NELECT =     501.0000    total number of electrons
   NUPDOWN=      -1.0000    fix difference up-down

 DOS related values:
   EMIN   =  10.00;   EMAX   =-10.00  energy-range for DOS
   EFERMI =   0.00
   ISMEAR =     1;   SIGMA  =   0.10  broadening in eV -4-tet -1-fermi 0-gaus

 Electronic relaxation 2 (details)
   IALGO  =     68    algorithm
   LDIAG  =      T    sub-space diagonalisation (order eigenvalues)
   LSUBROT=      F    optimize rotation matrix (better conditioning)
   TURBO    =      0    0=normal 1=particle mesh
   IRESTART =      0    0=no restart 2=restart with 2 vectors
   NREBOOT  =      0    no. of reboots
   NMIN     =      0    reboot dimension
   EREF     =   0.00    reference energy to select bands
   IMIX   =      4    mixing-type and parameters
     AMIX     =   0.40;   BMIX     =  1.00
     AMIX_MAG =   1.60;   BMIX_MAG =  1.00
     AMIN     =   0.10
     WC   =   100.;   INIMIX=   1;  MIXPRE=   1;  MAXMIX= -45

 Intra band minimization:
   WEIMIN = 0.0010     energy-eigenvalue tresh-hold
   EBREAK =  0.82E-10  absolut break condition
   DEPER  =   0.30     relativ break condition

   TIME   =   0.40     timestep for ELM

  volume/ion in A,a.u.               =      18.61       125.57
  Fermi-wavevector in a.u.,A,eV,Ry     =   1.331876  2.516881 24.135288  1.773894
  Thomas-Fermi vector in A             =   2.460854

 Write flags
   LWAVE  =      F    write WAVECAR
   LCHARG =      F    write CHGCAR
   LVTOT  =      F    write LOCPOT, total local potential
   LVHAR  =      F    write LOCPOT, Hartree potential only
   LELF   =      F    write electronic localiz. function (ELF)
   LORBIT =      0    0 simple, 1 ext, 2 COOP (PROOUT)


 Dipole corrections
   LMONO  =      F    monopole corrections only (constant potential shift)
   LDIPOL =      T    correct potential (dipole corrections)
   IDIPOL =      3    1-x, 2-y, 3-z, 4-all directions
   EPSILON=  1.0000000 bulk dielectric constant

 Exchange correlation treatment:
   GGA     =    MK    GGA type
   LEXCH   =    43    internal setting for exchange type
   VOSKOWN=      1    Vosko Wilk Nusair interpolation
   LHFCALC =     F    Hartree Fock is set to
   LHFONE  =     F    Hartree Fock one center treatment
   AEXX    =    0.0000 exact exchange contribution

 vdW DFT:
   LUSE_VDW   =     T    switch on vdW DFT
   Zab_VDW    =-.8491    correlation parameter
   PARAM1     =0.1234
   PARAM2     =1.0000
   PARAM3     =0.0000

 Linear response parameters
   LEPSILON=     F    determine dielectric tensor
   LRPA    =     F    only Hartree local field effects (RPA)
   LNABLA  =     F    use nabla operator in PAW spheres
   LVEL    =     F    velocity operator in full k-point grid
   LINTERFAST=   F  fast interpolation
   KINTER  =     0    interpolate to denser k-point grid
   CSHIFT  =0.1000    complex shift for real part using Kramers Kronig
   OMEGAMAX=  -1.0    maximum frequency
   DEG_THRESHOLD= 0.2000000E-02 threshold for treating states as degnerate
   RTIME   =    0.100 relaxation time in fs

 Orbital magnetization related:
   ORBITALMAG=     F  switch on orbital magnetization
   LCHIMAG   =     F  perturbation theory with respect to B field
   DQ        =  0.001000  dq finite difference perturbation B field



--------------------------------------------------------------------------------------------------------


 quasi-Newton-method for relaxation of ions
   using selective dynamics as specified on POSCAR
 charge density and potential will be updated during run
 non-spin polarized calculation
 RMM-DIIS sequential band-by-band and
  variant of blocked Davidson during initial phase
 perform sub-space diagonalisation
    before iterative eigenvector-optimisation
 modified Broyden-mixing scheme, WC =      100.0
 initial mixing is a Kerker type mixing with AMIX =  0.4000 and BMIX =      1.0000
 Hartree-type preconditioning will be used
 using additional bands           53
 real space projection scheme for non local part
 use partial core corrections
 calculate Harris-corrections to forces
   (improved forces if not selfconsistent)
 use gradient corrections
 use of overlap-Matrix (Vanderbilt PP)
 Methfessel and Paxton  Order N= 1 SIGMA  =   0.10


--------------------------------------------------------------------------------------------------------


  energy-cutoff  :      400.00
  volume of cell :      930.40
      direct lattice vectors                 reciprocal lattice vectors
     5.412900000 -5.412900000 -0.000000000     0.123162568 -0.061581284 -0.061581284
     0.000000000  5.412900000 -5.412900000     0.061581284  0.061581284 -0.123162568
    10.584969359 10.584969359 10.584969359     0.031491195  0.031491195  0.031491195

  length of vectors
     7.654996592  7.654996592 18.333704726     0.150842724  0.150842724  0.054544350



 k-points in units of 2pi/SCALE and weight: K-Point Grid Created by Matt Darby on 30
   0.00000000  0.00000000  0.00000000       0.006
   0.00947404 -0.00473702 -0.00473702       0.012
   0.01894809 -0.00947404 -0.00947404       0.012
   0.02842213 -0.01421107 -0.01421107       0.012
   0.03789617 -0.01894809 -0.01894809       0.012
   0.04737022 -0.02368511 -0.02368511       0.012
   0.05684426 -0.02842213 -0.02842213       0.012
   0.00473702  0.00473702 -0.00947404       0.012
   0.01421107  0.00000000 -0.01421107       0.012
   0.02368511 -0.00473702 -0.01894809       0.012
   0.03315915 -0.00947404 -0.02368511       0.012
   0.04263320 -0.01421107 -0.02842213       0.012
   0.05210724 -0.01894809 -0.03315915       0.012
   0.06158128 -0.02368511 -0.03789617       0.012
  -0.05210724  0.03315915  0.01894809       0.012
  -0.04263320  0.02842213  0.01421107       0.012
  -0.03315915  0.02368511  0.00947404       0.012
  -0.02368511  0.01894809  0.00473702       0.012
  -0.01421107  0.01421107  0.00000000       0.012
  -0.00473702  0.00947404 -0.00473702       0.012
   0.00947404  0.00947404 -0.01894809       0.012
   0.01894809  0.00473702 -0.02368511       0.012
   0.02842213  0.00000000 -0.02842213       0.012
   0.03789617 -0.00473702 -0.03315915       0.012
   0.04737022 -0.00947404 -0.03789617       0.012
   0.05684426 -0.01421107 -0.04263320       0.012
   0.06631831 -0.01894809 -0.04737022       0.012
  -0.04737022  0.03789617  0.00947404       0.012
  -0.03789617  0.03315915  0.00473702       0.012
  -0.02842213  0.02842213 -0.00000000       0.012
  -0.01894809  0.02368511 -0.00473702       0.012
  -0.00947404  0.01894809 -0.00947404       0.012
   0.00000000  0.01421107 -0.01421107       0.012
   0.01421107  0.01421107 -0.02842213       0.012
   0.02368511  0.00947404 -0.03315915       0.012
   0.03315915  0.00473702 -0.03789617       0.012
   0.04263320  0.00000000 -0.04263320       0.012
   0.05210724 -0.00473702 -0.04737022       0.012
   0.06158128 -0.00947404 -0.05210724       0.012
   0.07105533 -0.01421107 -0.05684426       0.012
  -0.04263320  0.04263320  0.00000000       0.012
  -0.03315915  0.03789617 -0.00473702       0.012
  -0.02368511  0.03315915 -0.00947404       0.012
  -0.01421107  0.02842213 -0.01421107       0.012
  -0.00473702  0.02368511 -0.01894809       0.012
   0.00473702  0.01894809 -0.02368511       0.012
   0.01894809  0.01894809 -0.03789617       0.012
   0.02842213  0.01421107 -0.04263320       0.012
   0.03789617  0.00947404 -0.04737022       0.012
   0.04737022  0.00473702 -0.05210724       0.012
   0.05684426  0.00000000 -0.05684426       0.012
   0.06631831 -0.00473702 -0.06158128       0.012
   0.07579235 -0.00947404 -0.06631831       0.012
  -0.03789617  0.04737022 -0.00947404       0.012
  -0.02842213  0.04263320 -0.01421107       0.012
  -0.01894809  0.03789617 -0.01894809       0.012
  -0.00947404  0.03315915 -0.02368511       0.012
  -0.00000000  0.02842213 -0.02842213       0.012
   0.00947404  0.02368511 -0.03315915       0.012
   0.02368511  0.02368511 -0.04737022       0.012
   0.03315915  0.01894809 -0.05210724       0.012
   0.04263320  0.01421107 -0.05684426       0.012
   0.05210724  0.00947404 -0.06158128       0.012
   0.06158128  0.00473702 -0.06631831       0.012
   0.07105533  0.00000000 -0.07105533       0.012
   0.08052937 -0.00473702 -0.07579235       0.012
  -0.03315915  0.05210724 -0.01894809       0.012
  -0.02368511  0.04737022 -0.02368511       0.012
  -0.01421107  0.04263320 -0.02842213       0.012
  -0.00473702  0.03789617 -0.03315915       0.012
   0.00473702  0.03315915 -0.03789617       0.012
   0.01421107  0.02842213 -0.04263320       0.012
   0.02842213  0.02842213 -0.05684426       0.012
   0.03789617  0.02368511 -0.06158128       0.012
   0.04737022  0.01894809 -0.06631831       0.012
   0.05684426  0.01421107 -0.07105533       0.012
   0.06631831  0.00947404 -0.07579235       0.012
   0.07579235  0.00473702 -0.08052937       0.012
   0.08526639  0.00000000 -0.08526639       0.012
  -0.02842213  0.05684426 -0.02842213       0.012
  -0.01894809  0.05210724 -0.03315915       0.012
  -0.00947404  0.04737022 -0.03789617       0.012
   0.00000000  0.04263320 -0.04263320       0.012
   0.00947404  0.03789617 -0.04737022       0.012
   0.01894809  0.03315915 -0.05210724       0.012

 k-points in reciprocal lattice and weights: K-Point Grid Created by Matt Darby on 30
   0.00000000  0.00000000  0.00000000       0.006
   0.07692308  0.00000000  0.00000000       0.012
   0.15384615  0.00000000  0.00000000       0.012
   0.23076923  0.00000000  0.00000000       0.012
   0.30769231  0.00000000  0.00000000       0.012
   0.38461538  0.00000000  0.00000000       0.012
   0.46153846  0.00000000  0.00000000       0.012
   0.00000000  0.07692308  0.00000000       0.012
   0.07692308  0.07692308  0.00000000       0.012
   0.15384615  0.07692308  0.00000000       0.012
   0.23076923  0.07692308 -0.00000000       0.012
   0.30769231  0.07692308  0.00000000       0.012
   0.38461538  0.07692308 -0.00000000       0.012
   0.46153846  0.07692308 -0.00000000       0.012
  -0.46153846  0.07692308 -0.00000000       0.012
  -0.38461538  0.07692308 -0.00000000       0.012
  -0.30769231  0.07692308 -0.00000000       0.012
  -0.23076923  0.07692308  0.00000000       0.012
  -0.15384615  0.07692308 -0.00000000       0.012
  -0.07692308  0.07692308  0.00000000       0.012
  -0.00000000  0.15384615 -0.00000000       0.012
   0.07692308  0.15384615  0.00000000       0.012
   0.15384615  0.15384615  0.00000000       0.012
   0.23076923  0.15384615  0.00000000       0.012
   0.30769231  0.15384615  0.00000000       0.012
   0.38461538  0.15384615  0.00000000       0.012
   0.46153846  0.15384615  0.00000000       0.012
  -0.46153846  0.15384615  0.00000000       0.012
  -0.38461538  0.15384615  0.00000000       0.012
  -0.30769231  0.15384615 -0.00000000       0.012
  -0.23076923  0.15384615  0.00000000       0.012
  -0.15384615  0.15384615 -0.00000000       0.012
  -0.07692308  0.15384615 -0.00000000       0.012
  -0.00000000  0.23076923  0.00000000       0.012
   0.07692308  0.23076923 -0.00000000       0.012
   0.15384615  0.23076923  0.00000000       0.012
   0.23076923  0.23076923  0.00000000       0.012
   0.30769231  0.23076923  0.00000000       0.012
   0.38461538  0.23076923 -0.00000000       0.012
   0.46153846  0.23076923  0.00000000       0.012
  -0.46153846  0.23076923  0.00000000       0.012
  -0.38461538  0.23076923 -0.00000000       0.012
  -0.30769231  0.23076923  0.00000000       0.012
  -0.23076923  0.23076923 -0.00000000       0.012
  -0.15384615  0.23076923  0.00000000       0.012
  -0.07692308  0.23076923  0.00000000       0.012
  -0.00000000  0.30769231  0.00000000       0.012
   0.07692308  0.30769231  0.00000000       0.012
   0.15384615  0.30769231  0.00000000       0.012
   0.23076923  0.30769231  0.00000000       0.012
   0.30769231  0.30769231  0.00000000       0.012
   0.38461538  0.30769231  0.00000000       0.012
   0.46153846  0.30769231  0.00000000       0.012
  -0.46153846  0.30769231  0.00000000       0.012
  -0.38461538  0.30769231  0.00000000       0.012
  -0.30769231  0.30769231  0.00000000       0.012
  -0.23076923  0.30769231  0.00000000       0.012
  -0.15384615  0.30769231  0.00000000       0.012
  -0.07692308  0.30769231  0.00000000       0.012
  -0.00000000  0.38461538  0.00000000       0.012
   0.07692308  0.38461538 -0.00000000       0.012
   0.15384615  0.38461538  0.00000000       0.012
   0.23076923  0.38461538 -0.00000000       0.012
   0.30769231  0.38461538  0.00000000       0.012
   0.38461538  0.38461538  0.00000000       0.012
   0.46153846  0.38461538  0.00000000       0.012
  -0.46153846  0.38461538  0.00000000       0.012
  -0.38461538  0.38461538  0.00000000       0.012
  -0.30769231  0.38461538  0.00000000       0.012
  -0.23076923  0.38461538 -0.00000000       0.012
  -0.15384615  0.38461538  0.00000000       0.012
  -0.07692308  0.38461538 -0.00000000       0.012
  -0.00000000  0.46153846  0.00000000       0.012
   0.07692308  0.46153846  0.00000000       0.012
   0.15384615  0.46153846  0.00000000       0.012
   0.23076923  0.46153846  0.00000000       0.012
   0.30769231  0.46153846  0.00000000       0.012
   0.38461538  0.46153846  0.00000000       0.012
   0.46153846  0.46153846  0.00000000       0.012
  -0.46153846  0.46153846 -0.00000000       0.012
  -0.38461538  0.46153846  0.00000000       0.012
  -0.30769231  0.46153846  0.00000000       0.012
  -0.23076923  0.46153846  0.00000000       0.012
  -0.15384615  0.46153846 -0.00000000       0.012
  -0.07692308  0.46153846  0.00000000       0.012

 position of ions in fractional coordinates (direct lattice)
   0.22222222  0.11111111  0.00000000
   0.22222222  0.44444444  0.00000000
   0.22222222  0.77777778  0.00000000
   0.55555556  0.11111111  0.00000000
   0.55555556  0.44444444  0.00000000
   0.55555556  0.77777778  0.00000000
   0.88888889  0.11111111  0.00000000
   0.88888889  0.44444444  0.00000000
   0.88888889  0.77777778  0.00000000
   0.00000000  0.00000000  0.11363913
   0.00000000  0.33333333  0.11363913
   0.00000000  0.66666667  0.11363913
   0.33333333  0.00000000  0.11363913
   0.33333333  0.33333333  0.11363913
   0.33333333  0.66666667  0.11363913
   0.66666667  0.00000000  0.11363913
   0.66666667  0.33333333  0.11363913
   0.66666667  0.66666667  0.11363913
   0.99288510  0.99555098  0.45300430
   0.22214418  0.11365890  0.34024712
   0.11046618  0.22274663  0.22667147
   0.33180431  0.99722013  0.45368793
   0.55434896  0.11275853  0.34030686
   0.44406400  0.22250112  0.22673094
   0.66507117  0.00063763  0.45280864
   0.88927056  0.11256035  0.34040655
   0.77807721  0.22315455  0.22735464
   0.99355008  0.33331938  0.45345513
   0.22176787  0.44411478  0.34023300
   0.11098730  0.55643348  0.22736893
   0.55468755  0.44532850  0.33930808
   0.44406072  0.55656343  0.22679135
   0.66854531  0.33482847  0.45398838
   0.88773614  0.44523841  0.34039458
   0.77774066  0.55641611  0.22698946
   0.00017779  0.66812149  0.45321807
   0.22278721  0.77931328  0.34016808
   0.11099960  0.88966975  0.22741228
   0.33153379  0.67102562  0.45365239
   0.55438071  0.77725758  0.34042569
   0.44408864  0.88955290  0.22723450
   0.66815674  0.66915671  0.45466141
   0.88747621  0.77807245  0.34044664
   0.77798028  0.88991981  0.22738079
   0.33137717  0.33398667  0.46232169
   0.31257959  0.32120941  0.58296547
   0.32144526  0.45795713  0.60593514
   0.49946257  0.43152655  0.52679304
   0.41063109  0.28061412  0.61370535
   0.15671658  0.19415805  0.58527457

 position of ions in cartesian coordinates  (Angst):
   1.20286667 -0.60143333 -0.60143333
   1.20286667  1.20286667 -2.40573333
   1.20286667  3.00716667 -4.21003333
   3.00716667 -2.40573333 -0.60143333
   3.00716667 -0.60143333 -2.40573333
   3.00716667  1.20286667 -4.21003333
   4.81146667 -4.21003333 -0.60143333
   4.81146667 -2.40573333 -2.40573333
   4.81146667 -0.60143333 -4.21003333
   1.20286667  1.20286667  1.20286667
   1.20286667  3.00716667 -0.60143333
   1.20286667  4.81146667 -2.40573333
   3.00716667 -0.60143333  1.20286667
   3.00716667  1.20286667 -0.60143333
   3.00716667  3.00716667 -2.40573333
   4.81146667 -2.40573333  1.20286667
   4.81146667 -0.60143333 -0.60143333
   4.81146667  1.20286667 -2.40573333
  10.16942445  4.80946680 -0.59378121
   4.80394961  3.01428540  2.98628110
   2.99725300  3.00707340  1.19360537
   6.59829636  8.40410210 -0.59558000
   6.60277315  1.21185276  2.99178700
   4.80361405  1.20064225  1.19556372
   8.39292932  1.19645328  4.78951416
   8.41672548 -0.60106180  2.99391494
   6.61819599 -0.59719902  1.19862860
  10.17779589  1.22604593  2.99558423
   4.80176319  4.80489747  1.19740698
   3.00745633  4.81784883 -0.60522562
   6.59403389  2.99961606  1.18104705
   4.80423573  3.00954536 -0.61204275
   8.42422202  2.99907717  2.99306008
   8.40829311  1.20787022  1.19303515
   6.61250890  1.20466885 -0.60914825
   4.79826175  8.41281186  1.18082459
   4.80659361  6.61308866 -0.61767617
   3.00798181  6.62201572 -2.40854134
   6.59645593  6.63953194  1.16970210
   6.60420282  4.80980568 -0.60382205
   4.80907763  4.81652368 -2.40979068
   8.42924267  4.81798980  1.19049870
   8.40743718  3.01142563 -0.60801117
   6.61794814  3.01273616 -2.41022824
   6.68737237  4.90778584  3.08582441
   7.86263374  6.21738405  4.43199728
   8.15375599  7.15273001  3.93492880
   8.27962915  5.20835731  3.24027814
   8.71875736  5.79228351  4.97711620
   7.04340456  6.39778029  5.14415529



--------------------------------------------------------------------------------------------------------


 k-point  1 :   0.0000 0.0000 0.0000  plane waves:   16943
 k-point  2 :   0.0769 0.0000 0.0000  plane waves:   16935
 k-point  3 :   0.1538 0.0000 0.0000  plane waves:   16955
 k-point  4 :   0.2308 0.0000 0.0000  plane waves:   16932
 k-point  5 :   0.3077 0.0000 0.0000  plane waves:   16886
 k-point  6 :   0.3846 0.0000 0.0000  plane waves:   16874
 k-point  7 :   0.4615 0.0000 0.0000  plane waves:   16856
 k-point  8 :   0.0000 0.0769 0.0000  plane waves:   16935
 k-point  9 :   0.0769 0.0769 0.0000  plane waves:   16959
 k-point 10 :   0.1538 0.0769 0.0000  plane waves:   16930
 k-point 11 :   0.2308 0.0769-0.0000  plane waves:   16910
 k-point 12 :   0.3077 0.0769 0.0000  plane waves:   16914
 k-point 13 :   0.3846 0.0769-0.0000  plane waves:   16868
 k-point 14 :   0.4615 0.0769-0.0000  plane waves:   16856
 k-point 15 :  -0.4615 0.0769-0.0000  plane waves:   16868
 k-point 16 :  -0.3846 0.0769-0.0000  plane waves:   16914
 k-point 17 :  -0.3077 0.0769-0.0000  plane waves:   16910
 k-point 18 :  -0.2308 0.0769 0.0000  plane waves:   16930
 k-point 19 :  -0.1538 0.0769-0.0000  plane waves:   16959
 k-point 20 :  -0.0769 0.0769 0.0000  plane waves:   16935
 k-point 21 :  -0.0000 0.1538-0.0000  plane waves:   16955
 k-point 22 :   0.0769 0.1538 0.0000  plane waves:   16930
 k-point 23 :   0.1538 0.1538 0.0000  plane waves:   16933
 k-point 24 :   0.2308 0.1538 0.0000  plane waves:   16913
 k-point 25 :   0.3077 0.1538 0.0000  plane waves:   16897
 k-point 26 :   0.3846 0.1538 0.0000  plane waves:   16850
 k-point 27 :   0.4615 0.1538 0.0000  plane waves:   16850
 k-point 28 :  -0.4615 0.1538 0.0000  plane waves:   16897
 k-point 29 :  -0.3846 0.1538 0.0000  plane waves:   16913
 k-point 30 :  -0.3077 0.1538-0.0000  plane waves:   16933
 k-point 31 :  -0.2308 0.1538 0.0000  plane waves:   16930
 k-point 32 :  -0.1538 0.1538-0.0000  plane waves:   16955
 k-point 33 :  -0.0769 0.1538-0.0000  plane waves:   16959
 k-point 34 :  -0.0000 0.2308 0.0000  plane waves:   16932
 k-point 35 :   0.0769 0.2308-0.0000  plane waves:   16910
 k-point 36 :   0.1538 0.2308 0.0000  plane waves:   16913
 k-point 37 :   0.2308 0.2308 0.0000  plane waves:   16885
 k-point 38 :   0.3077 0.2308 0.0000  plane waves:   16884
 k-point 39 :   0.3846 0.2308-0.0000  plane waves:   16872
 k-point 40 :   0.4615 0.2308 0.0000  plane waves:   16884
 k-point 41 :  -0.4615 0.2308 0.0000  plane waves:   16885
 k-point 42 :  -0.3846 0.2308-0.0000  plane waves:   16913
 k-point 43 :  -0.3077 0.2308 0.0000  plane waves:   16910
 k-point 44 :  -0.2308 0.2308-0.0000  plane waves:   16932
 k-point 45 :  -0.1538 0.2308 0.0000  plane waves:   16930
 k-point 46 :  -0.0769 0.2308 0.0000  plane waves:   16930
 k-point 47 :  -0.0000 0.3077 0.0000  plane waves:   16886
 k-point 48 :   0.0769 0.3077 0.0000  plane waves:   16914
 k-point 49 :   0.1538 0.3077 0.0000  plane waves:   16897
 k-point 50 :   0.2308 0.3077 0.0000  plane waves:   16884
 k-point 51 :   0.3077 0.3077 0.0000  plane waves:   16896
 k-point 52 :   0.3846 0.3077 0.0000  plane waves:   16896
 k-point 53 :   0.4615 0.3077 0.0000  plane waves:   16884
 k-point 54 :  -0.4615 0.3077 0.0000  plane waves:   16897
 k-point 55 :  -0.3846 0.3077 0.0000  plane waves:   16914
 k-point 56 :  -0.3077 0.3077 0.0000  plane waves:   16886
 k-point 57 :  -0.2308 0.3077 0.0000  plane waves:   16910
 k-point 58 :  -0.1538 0.3077 0.0000  plane waves:   16933
 k-point 59 :  -0.0769 0.3077 0.0000  plane waves:   16910
 k-point 60 :  -0.0000 0.3846 0.0000  plane waves:   16874
 k-point 61 :   0.0769 0.3846-0.0000  plane waves:   16868
 k-point 62 :   0.1538 0.3846 0.0000  plane waves:   16850
 k-point 63 :   0.2308 0.3846-0.0000  plane waves:   16872
 k-point 64 :   0.3077 0.3846 0.0000  plane waves:   16896
 k-point 65 :   0.3846 0.3846 0.0000  plane waves:   16872
 k-point 66 :   0.4615 0.3846 0.0000  plane waves:   16850
 k-point 67 :  -0.4615 0.3846 0.0000  plane waves:   16868
 k-point 68 :  -0.3846 0.3846 0.0000  plane waves:   16874
 k-point 69 :  -0.3077 0.3846 0.0000  plane waves:   16914
 k-point 70 :  -0.2308 0.3846-0.0000  plane waves:   16913
 k-point 71 :  -0.1538 0.3846 0.0000  plane waves:   16913
 k-point 72 :  -0.0769 0.3846-0.0000  plane waves:   16914
 k-point 73 :  -0.0000 0.4615 0.0000  plane waves:   16856
 k-point 74 :   0.0769 0.4615 0.0000  plane waves:   16856
 k-point 75 :   0.1538 0.4615 0.0000  plane waves:   16850
 k-point 76 :   0.2308 0.4615 0.0000  plane waves:   16884
 k-point 77 :   0.3077 0.4615 0.0000  plane waves:   16884
 k-point 78 :   0.3846 0.4615 0.0000  plane waves:   16850
 k-point 79 :   0.4615 0.4615 0.0000  plane waves:   16856
 k-point 80 :  -0.4615 0.4615-0.0000  plane waves:   16856
 k-point 81 :  -0.3846 0.4615 0.0000  plane waves:   16868
 k-point 82 :  -0.3077 0.4615 0.0000  plane waves:   16897
 k-point 83 :  -0.2308 0.4615 0.0000  plane waves:   16885
 k-point 84 :  -0.1538 0.4615-0.0000  plane waves:   16897
 k-point 85 :  -0.0769 0.4615 0.0000  plane waves:   16868

 maximum and minimum number of plane-waves per node :      4265     4197

 maximum number of plane-waves:     16959
 maximum index in each direction:
   IXMAX=   12   IYMAX=   12   IZMAX=   29
   IXMIN=  -12   IYMIN=  -12   IZMIN=  -29

 NGX is ok and might be reduce to  50
 NGY is ok and might be reduce to  50
 NGZ is ok and might be reduce to 118

 real space projection operators:
  total allocation   :      32098.36 KBytes
  max/ min on nodes  :       8336.34       7718.39


 parallel 3D FFT for wavefunctions:
    minimum data exchange during FFTs selected (reduces bandwidth)
 parallel 3D FFT for charge:
    minimum data exchange during FFTs selected (reduces bandwidth)


 total amount of memory used by VASP on root node   292254. kBytes
========================================================================

   base      :      30000. kBytes
   nonlr-proj:      15892. kBytes
   fftplans  :       5374. kBytes
   grid      :      10087. kBytes
   one-center:        202. kBytes
   wavefun   :     230699. kBytes

     INWAV:  cpu time    0.0001: real time    0.0002
 Broyden mixing: mesh for mixing (old mesh)
   NGX = 25   NGY = 25   NGZ = 59
  (NGX  =100   NGY  =100   NGZ  =240)
  gives a total of  36875 points

 initial charge density was supplied:
 charge density of overlapping atoms calculated
 number of electron     501.0000000 magnetization
 keeping initial charge density in first step


--------------------------------------------------------------------------------------------------------


 Maximum index for non-local projection operator         1600
 Maximum index for augmentation-charges         1058 (set IRDMAX)


--------------------------------------------------------------------------------------------------------


 First call to EWALD:  gamma=   0.182
 Maximum number of real-space cells 4x 4x 2
 Maximum number of reciprocal cells 2x 2x 5

 FEWALD executed in parallel
    FEWALD:  cpu time    0.0031: real time    0.0240


----------------------------------------- Iteration    9(   1)  ---------------------------------------


    POTLOK:  cpu time    3.3286: real time    3.3318
    SETDIJ:  cpu time    0.0100: real time    0.0100
     EDDAV:  cpu time  118.7726: real time  118.8440
       DOS:  cpu time    0.0136: real time    0.0135
    CHARGE:  cpu time    4.1878: real time    4.1863
    MIXING:  cpu time    0.0013: real time    0.0013
    --------------------------------------------
      LOOP:  cpu time  126.3164: real time  126.3922

 eigenvalue-minimisations  : 51696
 total energy-change (2. order) :-0.2363009E-03  (-0.1167863E-01)
 number of electron     501.0000022 magnetization
 augmentation part      320.3603375 magnetization

 DIPCOR: dipole corrections for dipol
 direction  3 min pos   181,
 dipolmoment          -0.081585     -0.081585     -0.081585 electrons x Angstroem
 Tr[quadrupol]     -4870.151833

 energy correction for charged system         0.000000 eV
 dipol+quadrupol energy correction           -0.001942 eV
 added-field ion interaction         -4.588000 eV  (added to PSCEN)


  free energy =  -0.851417597787E+02  energy without entropy=  -0.851242105468E+02


--------------------------------------------------------------------------------------------------------




----------------------------------------- Iteration    9(   2)  ---------------------------------------


    POTLOK:  cpu time    3.3946: real time    3.3988
    SETDIJ:  cpu time    0.0101: real time    0.0101
    EDDIAG:  cpu time   17.2124: real time   17.2407
  RMM-DIIS:  cpu time   49.6375: real time   49.6705
    ORTHCH:  cpu time    2.5996: real time    2.5986
       DOS:  cpu time    0.0133: real time    0.0133
    CHARGE:  cpu time    4.0109: real time    4.0097
    MIXING:  cpu time    0.0014: real time    0.0014
    --------------------------------------------
      LOOP:  cpu time   76.8825: real time   76.9481

 eigenvalue-minimisations  : 51883
 total energy-change (2. order) :-0.1238268E-03  (-0.1404840E-03)
 number of electron     501.0000022 magnetization
 augmentation part      320.3583999 magnetization

 DIPCOR: dipole corrections for dipol
 direction  3 min pos   181,
 dipolmoment          -0.082031     -0.082031     -0.082031 electrons x Angstroem
 Tr[quadrupol]     -4870.159662

 energy correction for charged system         0.000000 eV
 dipol+quadrupol energy correction           -0.001963 eV
 added-field ion interaction         -4.613095 eV  (added to PSCEN)


 eigenvalues of (default mixing * dielectric matrix)
  average eigenvalue GAMMA=   0.5925
  0.5925

  free energy =  -0.851418836055E+02  energy without entropy=  -0.851243427219E+02


--------------------------------------------------------------------------------------------------------




----------------------------------------- Iteration    9(   3)  ---------------------------------------


    POTLOK:  cpu time    3.0209: real time    3.0197
    SETDIJ:  cpu time    0.0101: real time    0.0101
    EDDIAG:  cpu time   17.1739: real time   17.1971
  RMM-DIIS:  cpu time   49.6026: real time   49.6510
    ORTHCH:  cpu time    2.6539: real time    2.6528
       DOS:  cpu time    0.0135: real time    0.0135
    CHARGE:  cpu time    4.0051: real time    4.0041
    MIXING:  cpu time    0.0015: real time    0.0015
    --------------------------------------------
      LOOP:  cpu time   76.4834: real time   76.5549

 eigenvalue-minimisations  : 51859
 total energy-change (2. order) : 0.7683098E-05  (-0.1136123E-04)
 number of electron     501.0000022 magnetization
 augmentation part      320.3595153 magnetization

 DIPCOR: dipole corrections for dipol
 direction  3 min pos   181,
 dipolmoment          -0.081680     -0.081680     -0.081680 electrons x Angstroem
 Tr[quadrupol]     -4870.158374

 energy correction for charged system         0.000000 eV
 dipol+quadrupol energy correction           -0.001946 eV
 added-field ion interaction         -4.593351 eV  (added to PSCEN)


 eigenvalues of (default mixing * dielectric matrix)
  average eigenvalue GAMMA=   0.9415
  1.5007  0.3824

  free energy =  -0.851418759224E+02  energy without entropy=  -0.851243370048E+02


--------------------------------------------------------------------------------------------------------




----------------------------------------- Iteration    9(   4)  ---------------------------------------


    POTLOK:  cpu time    3.0351: real time    3.0343
    SETDIJ:  cpu time    0.0101: real time    0.0101
    EDDIAG:  cpu time   17.1617: real time   17.2079
  RMM-DIIS:  cpu time   50.1110: real time   50.1412
    ORTHCH:  cpu time    2.5969: real time    2.5960
       DOS:  cpu time    0.0135: real time    0.0135
    CHARGE:  cpu time    4.0222: real time    4.0209
    MIXING:  cpu time    0.0016: real time    0.0016
    --------------------------------------------
      LOOP:  cpu time   76.9545: real time   77.0323

 eigenvalue-minimisations  : 52524
 total energy-change (2. order) :-0.2632685E-04  (-0.2853614E-05)
 number of electron     501.0000022 magnetization
 augmentation part      320.3604372 magnetization

 DIPCOR: dipole corrections for dipol
 direction  3 min pos   181,
 dipolmoment          -0.082813     -0.082813     -0.082813 electrons x Angstroem
 Tr[quadrupol]     -4870.159705

 energy correction for charged system         0.000000 eV
 dipol+quadrupol energy correction           -0.002001 eV
 added-field ion interaction         -4.657032 eV  (added to PSCEN)


 eigenvalues of (default mixing * dielectric matrix)
  average eigenvalue GAMMA=   0.8185
  1.8259  0.3866  0.2431

  free energy =  -0.851419022492E+02  energy without entropy=  -0.851243615623E+02


--------------------------------------------------------------------------------------------------------




----------------------------------------- Iteration    9(   5)  ---------------------------------------


    POTLOK:  cpu time    3.0173: real time    3.0162
    SETDIJ:  cpu time    0.0101: real time    0.0101
    EDDIAG:  cpu time   17.6561: real time   17.6983
  RMM-DIIS:  cpu time   49.6739: real time   49.7204
    ORTHCH:  cpu time    2.5919: real time    2.5911
       DOS:  cpu time    0.0133: real time    0.0133
    CHARGE:  cpu time    3.9777: real time    3.9847
    MIXING:  cpu time    0.0016: real time    0.0016
    --------------------------------------------
      LOOP:  cpu time   76.9440: real time   77.0406

 eigenvalue-minimisations  : 51898
 total energy-change (2. order) : 0.3395650E-04  (-0.1449382E-05)
 number of electron     501.0000022 magnetization
 augmentation part      320.3598189 magnetization

 DIPCOR: dipole corrections for dipol
 direction  3 min pos   181,
 dipolmoment          -0.081976     -0.081976     -0.081976 electrons x Angstroem
 Tr[quadrupol]     -4870.162459

 energy correction for charged system         0.000000 eV
 dipol+quadrupol energy correction           -0.001960 eV
 added-field ion interaction         -4.609975 eV  (added to PSCEN)


 eigenvalues of (default mixing * dielectric matrix)
  average eigenvalue GAMMA=   0.9474
  2.3205  0.9388  0.3813  0.1491

  free energy =  -0.851418682927E+02  energy without entropy=  -0.851243273657E+02


--------------------------------------------------------------------------------------------------------




----------------------------------------- Iteration    9(   6)  ---------------------------------------


    POTLOK:  cpu time    3.0448: real time    3.0440
    SETDIJ:  cpu time    0.0100: real time    0.0100
    EDDIAG:  cpu time   17.2219: real time   17.2511
  RMM-DIIS:  cpu time   49.6262: real time   49.6881
    ORTHCH:  cpu time    2.5928: real time    2.5916
       DOS:  cpu time    0.0133: real time    0.0133
    CHARGE:  cpu time    3.9913: real time    3.9896
    MIXING:  cpu time    0.0016: real time    0.0016
    --------------------------------------------
      LOOP:  cpu time   76.5052: real time   76.5970

 eigenvalue-minimisations  : 51883
 total energy-change (2. order) : 0.4431204E-06  (-0.5804099E-06)
 number of electron     501.0000022 magnetization
 augmentation part      320.3592873 magnetization

 DIPCOR: dipole corrections for dipol
 direction  3 min pos   181,
 dipolmoment          -0.082260     -0.082260     -0.082260 electrons x Angstroem
 Tr[quadrupol]     -4870.163771

 energy correction for charged system         0.000000 eV
 dipol+quadrupol energy correction           -0.001974 eV
 added-field ion interaction         -4.625945 eV  (added to PSCEN)


 eigenvalues of (default mixing * dielectric matrix)
  average eigenvalue GAMMA=   0.8939
  2.4094  1.0299  0.5111  0.3723  0.1469

  free energy =  -0.851418678496E+02  energy without entropy=  -0.851243323195E+02


--------------------------------------------------------------------------------------------------------




----------------------------------------- Iteration    9(   7)  ---------------------------------------


    POTLOK:  cpu time    3.0118: real time    3.0111
    SETDIJ:  cpu time    0.0101: real time    0.0101
    EDDIAG:  cpu time   17.2651: real time   17.2803
  RMM-DIIS:  cpu time   49.3817: real time   49.4323
    ORTHCH:  cpu time    2.6011: real time    2.6044
       DOS:  cpu time    0.0131: real time    0.0131
    CHARGE:  cpu time    4.0157: real time    4.0140
    MIXING:  cpu time    0.0017: real time    0.0017
    --------------------------------------------
      LOOP:  cpu time   76.3048: real time   76.3727

 eigenvalue-minimisations  : 51508
 total energy-change (2. order) : 0.5587135E-06  (-0.2554755E-06)
 number of electron     501.0000022 magnetization
 augmentation part      320.3594154 magnetization

 DIPCOR: dipole corrections for dipol
 direction  3 min pos   181,
 dipolmoment          -0.082264     -0.082264     -0.082264 electrons x Angstroem
 Tr[quadrupol]     -4870.164453

 energy correction for charged system         0.000000 eV
 dipol+quadrupol energy correction           -0.001974 eV
 added-field ion interaction         -4.626175 eV  (added to PSCEN)


 eigenvalues of (default mixing * dielectric matrix)
  average eigenvalue GAMMA=   0.9441
  2.3296  1.4368  0.9723  0.1470  0.3687  0.4103

  free energy =  -0.851418672909E+02  energy without entropy=  -0.851243291839E+02


--------------------------------------------------------------------------------------------------------




----------------------------------------- Iteration    9(   8)  ---------------------------------------


    POTLOK:  cpu time    3.0200: real time    3.0188
    SETDIJ:  cpu time    0.0103: real time    0.0103
    EDDIAG:  cpu time   17.4389: real time   17.6141
  RMM-DIIS:  cpu time   32.7048: real time   32.7484
    ORTHCH:  cpu time    2.6202: real time    2.6198
       DOS:  cpu time    0.0135: real time    0.0135
    --------------------------------------------
      LOOP:  cpu time   55.8105: real time   56.0309

 eigenvalue-minimisations  : 32281
 total energy-change (2. order) : 0.6714254E-07  (-0.3374527E-07)
 number of electron     501.0000022 magnetization
 augmentation part      320.3594154 magnetization

 DIPCOR: dipole corrections for dipol
 direction  3 min pos   181,
 dipolmoment          -0.082253     -0.082253     -0.082253 electrons x Angstroem
 Tr[quadrupol]     -4870.164977

 energy correction for charged system         0.000000 eV
 dipol+quadrupol energy correction           -0.001974 eV
 added-field ion interaction         -4.625544 eV  (added to PSCEN)


  free energy =  -0.851418672238E+02  energy without entropy=  -0.851243284526E+02


--------------------------------------------------------------------------------------------------------




 average (electrostatic) potential at core
  the test charge radii are     1.0053  1.1806  0.6991  0.5201
  (the norm of the test charge is              1.0000)
       1 -42.9561       2 -42.9560       3 -42.9557       4 -42.9530       5 -42.9539
       6 -42.9530       7 -42.9527       8 -42.9578       9 -42.9566      10 -43.2261
      11 -43.2259      12 -43.2398      13 -43.2268      14 -43.2185      15 -43.2269
      16 -43.2383      17 -43.2260      18 -43.2253      19 -42.9480      20 -43.1963
      21 -43.2094      22 -42.9071      23 -43.2295      24 -43.2164      25 -42.9435
      26 -43.2232      27 -43.2365      28 -42.9275      29 -43.1925      30 -43.2412
      31 -43.1503      32 -43.2156      33 -42.9562      34 -43.2123      35 -43.2363
      36 -42.9437      37 -43.2070      38 -43.2412      39 -42.9087      40 -43.2285
      41 -43.2373      42 -42.9758      43 -43.2112      44 -43.2358      45 -54.3266
      46 -54.1673      47 -37.4185      48 -37.8170      49 -37.4629      50 -37.5134



 E-fermi :   0.3243     XC(G=0):  -8.8434     alpha+bet : -5.8303


--------------------------------------------------------------------------------------------------------


 soft charge-density along one line, spin component           1
         0         1         2         3         4         5         6         7         8         9
 total charge-density along one line

 pseudopotential strength for first ion, spin component:           1
 -8.833   0.013  -0.017   0.013   0.000   0.825  -0.006   0.008
  0.013  -8.833   0.008   0.014  -0.014  -0.006   0.825  -0.004
 -0.017   0.008  -8.821   0.008  -0.000   0.008  -0.004   0.820
  0.013   0.014   0.008  -8.833   0.014  -0.006  -0.007  -0.004
  0.000  -0.014  -0.000   0.014  -8.822  -0.000   0.006   0.000
  0.825  -0.006   0.008  -0.006  -0.000   1.192   0.003  -0.004
 -0.006   0.825  -0.004  -0.007   0.006   0.003   1.192   0.002
  0.008  -0.004   0.820  -0.004   0.000  -0.004   0.002   1.194
 -0.006  -0.007  -0.004   0.825  -0.006   0.003   0.003   0.002
 -0.000   0.006   0.000  -0.006   0.820   0.000  -0.003  -0.000
 -0.004  -0.004   0.000  -0.004  -0.000   0.001   0.001  -0.000
  0.000   0.000   0.000   0.000   0.000  -0.000  -0.000  -0.000
 -0.004  -0.003   0.003   0.000   0.005   0.003   0.002  -0.002
  0.000  -0.004  -0.004  -0.004  -0.000  -0.000   0.003   0.003
 -0.004   0.000   0.003  -0.003  -0.005   0.003  -0.000  -0.002
  0.002   0.001  -0.001  -0.000  -0.002  -0.001  -0.001   0.001
 -0.000   0.002   0.002   0.002   0.000   0.000  -0.001  -0.001
  0.002  -0.000  -0.001   0.001   0.002  -0.001   0.000   0.001
 total augmentation occupancy for first ion, spin component:           1
  1.917   0.003  -0.003   0.003   0.000  -0.025  -0.008   0.012  -0.008  -0.000   0.008   0.021   0.014   0.007   0.014  -0.003
  0.003   1.915   0.001   0.004  -0.002  -0.008  -0.024  -0.006  -0.008   0.011   0.007   0.020   0.015   0.014   0.009  -0.003
 -0.003   0.001   1.920   0.000  -0.000   0.012  -0.006  -0.049  -0.006   0.000  -0.004  -0.001   0.002   0.000   0.002   0.001
  0.003   0.004   0.000   1.915   0.002  -0.008  -0.008  -0.006  -0.024  -0.011   0.007   0.021   0.009   0.014   0.015  -0.000
  0.000  -0.002  -0.000   0.002   1.920  -0.000   0.011   0.000  -0.011  -0.049   0.000  -0.000   0.002  -0.000  -0.002   0.002
 -0.025  -0.008   0.012  -0.008  -0.000   0.061   0.001   0.007   0.001   0.000  -0.050   0.008   0.023   0.001   0.023  -0.001
 -0.008  -0.024  -0.006  -0.008   0.011   0.001   0.061  -0.004   0.001   0.007  -0.050   0.008   0.023   0.023   0.000  -0.001
  0.012  -0.006  -0.049  -0.006   0.000   0.007  -0.004   0.051  -0.004  -0.000   0.002   0.000  -0.010   0.018  -0.010   0.001
 -0.008  -0.008  -0.006  -0.024  -0.011   0.001   0.001  -0.004   0.061  -0.007  -0.049   0.008   0.000   0.023   0.023   0.000
 -0.000   0.011   0.000  -0.011  -0.049   0.000   0.007  -0.000  -0.007   0.051  -0.000  -0.000  -0.016  -0.000   0.016   0.001
  0.008   0.007  -0.004   0.007   0.000  -0.050  -0.050   0.002  -0.049  -0.000   1.260  -0.282   0.039   0.036   0.038  -0.007
  0.021   0.020  -0.001   0.021  -0.000   0.008   0.008   0.000   0.008  -0.000  -0.282   0.110  -0.028  -0.028  -0.028   0.003
  0.014   0.015   0.002   0.009   0.002   0.023   0.023  -0.010   0.000  -0.016   0.039  -0.028   0.148  -0.022  -0.023  -0.009
  0.007   0.014   0.000   0.014  -0.000   0.001   0.023   0.018   0.023  -0.000   0.036  -0.028  -0.022   0.152  -0.022   0.001
  0.014   0.009   0.002   0.015  -0.002   0.023   0.000  -0.010   0.023   0.016   0.038  -0.028  -0.023  -0.022   0.149   0.001
 -0.003  -0.003   0.001  -0.000   0.002  -0.001  -0.001   0.001   0.000   0.001  -0.007   0.003  -0.009   0.001   0.001   0.001
 -0.000  -0.003  -0.002  -0.003   0.000   0.000  -0.001  -0.002  -0.001  -0.000  -0.007   0.003   0.001  -0.009   0.001  -0.000
 -0.003  -0.000   0.001  -0.003  -0.002  -0.001   0.000   0.001  -0.001  -0.001  -0.007   0.003   0.001   0.001  -0.009  -0.000


------------------------ aborting loop because EDIFF is reached ----------------------------------------


    CHARGE:  cpu time    4.0128: real time    4.0132
    FORLOC:  cpu time    0.0227: real time    0.0227
    FORNL :  cpu time   23.8671: real time   23.8878
    STRESS:  cpu time   71.9501: real time   71.9816
    FORCOR:  cpu time    3.0495: real time    3.0736
    FORHAR:  cpu time    0.0369: real time    0.0371
    MIXING:  cpu time    0.0010: real time    0.0019
    OFIELD:  cpu time    0.0001: real time    0.0001

  FORCE on cell =-STRESS in cart. coord.  units (eV):
  Direction    XX          YY          ZZ          XY          YZ          ZX
  --------------------------------------------------------------------------------------
  Alpha Z  2831.17846  2831.17846  2831.17846
  Ewald   26029.67509 26014.16323 26027.79765-84840.04501-84825.13177-84837.19158
  Hartree 45791.69176 45800.98527 45807.97141-82432.55619-82419.44992-82429.53238
  E(xc)   -2831.08810 -2831.29036 -2831.22378    -0.04973     0.00501    -0.07229
  Local  -76350.41705-76353.65245-76373.80349167265.73036167236.11886167259.05774
  n-local -1676.52135 -1677.26485 -1677.23275    -1.71010    -1.21230    -1.73627
  augment  2520.47533  2522.35841  2522.24082     3.88327     4.04372     3.96448
  Kinetic  3673.36739  3681.45745  3681.13275     7.88047     9.04194     8.78355
  Fock        0.00000     0.00000     0.00000     0.00000     0.00000     0.00000
  -------------------------------------------------------------------------------------
  Total     -11.63847   -12.06483   -11.93893     3.13307     3.41554     3.27325
  in kB     -20.04175   -20.77596   -20.55914     5.39522     5.88166     5.63663
  external pressure =      -20.46 kB  Pullay stress =        0.00 kB


 VOLUME and BASIS-vectors are now :
 -----------------------------------------------------------------------------
  energy-cutoff  :      400.00
  volume of cell :      930.40
      direct lattice vectors                 reciprocal lattice vectors
     5.412900000 -5.412900000 -0.000000000     0.123162568 -0.061581284 -0.061581284
     0.000000000  5.412900000 -5.412900000     0.061581284  0.061581284 -0.123162568
    10.584969359 10.584969359 10.584969359     0.031491195  0.031491195  0.031491195

  length of vectors
     7.654996592  7.654996592 18.333704726     0.150842724  0.150842724  0.054544350


 FORCES acting on ions
    electron-ion (+dipol)            ewald-force                    non-local-force                 convergence-correction
 -----------------------------------------------------------------------------------------------
   0.192E+04 0.192E+04 0.192E+04   -.192E+04 -.192E+04 -.192E+04   -.320E+00 -.357E+00 -.146E+00   -.180E-03 -.182E-03 -.186E-03
   0.192E+04 0.192E+04 0.192E+04   -.192E+04 -.192E+04 -.192E+04   -.314E+00 -.136E+00 -.351E+00   -.182E-03 -.191E-03 -.184E-03
   0.192E+04 0.192E+04 0.192E+04   -.192E+04 -.192E+04 -.192E+04   -.375E+00 -.462E+00 -.458E+00   -.189E-03 -.157E-03 -.159E-03
   0.192E+04 0.192E+04 0.192E+04   -.192E+04 -.192E+04 -.192E+04   -.433E+00 -.344E+00 -.403E+00   -.180E-03 -.163E-03 -.175E-03
   0.192E+04 0.192E+04 0.192E+04   -.192E+04 -.192E+04 -.192E+04   -.137E+00 -.298E+00 -.300E+00   -.181E-03 -.172E-03 -.170E-03
   0.192E+04 0.192E+04 0.192E+04   -.192E+04 -.192E+04 -.192E+04   -.424E+00 -.405E+00 -.345E+00   -.183E-03 -.177E-03 -.168E-03
   0.192E+04 0.192E+04 0.192E+04   -.192E+04 -.192E+04 -.192E+04   -.318E+00 -.433E+00 -.440E+00   -.166E-03 -.179E-03 -.174E-03
   0.192E+04 0.192E+04 0.192E+04   -.192E+04 -.192E+04 -.192E+04   -.481E+00 -.487E+00 -.334E+00   -.152E-03 -.149E-03 -.191E-03
   0.192E+04 0.192E+04 0.192E+04   -.192E+04 -.192E+04 -.192E+04   -.471E+00 -.328E+00 -.477E+00   -.151E-03 -.194E-03 -.155E-03
   0.976E+03 0.977E+03 0.975E+03   -.976E+03 -.977E+03 -.974E+03   -.334E+00 -.348E+00 -.400E+00   0.219E-03 0.232E-03 0.282E-03
   0.976E+03 0.975E+03 0.977E+03   -.976E+03 -.974E+03 -.977E+03   -.351E+00 -.392E+00 -.335E+00   0.208E-03 0.275E-03 0.242E-03
   0.974E+03 0.976E+03 0.976E+03   -.973E+03 -.975E+03 -.975E+03   -.661E+00 -.640E+00 -.637E+00   0.195E-03 0.235E-03 0.234E-03
   0.977E+03 0.976E+03 0.974E+03   -.977E+03 -.976E+03 -.974E+03   -.375E+00 -.328E+00 -.387E+00   0.262E-03 0.214E-03 0.261E-03
   0.977E+03 0.976E+03 0.977E+03   -.976E+03 -.976E+03 -.976E+03   -.402E+00 -.413E+00 -.410E+00   0.237E-03 0.224E-03 0.240E-03
   0.977E+03 0.974E+03 0.976E+03   -.977E+03 -.974E+03 -.976E+03   -.378E+00 -.378E+00 -.321E+00   0.256E-03 0.258E-03 0.210E-03
   0.976E+03 0.976E+03 0.976E+03   -.976E+03 -.975E+03 -.976E+03   -.597E+00 -.504E+00 -.500E+00   0.283E-03 0.300E-03 0.293E-03
   0.975E+03 0.977E+03 0.977E+03   -.975E+03 -.977E+03 -.976E+03   -.323E+00 -.391E+00 -.408E+00   0.288E-03 0.233E-03 0.268E-03
   0.975E+03 0.976E+03 0.977E+03   -.975E+03 -.976E+03 -.977E+03   -.325E+00 -.392E+00 -.381E+00   0.289E-03 0.251E-03 0.240E-03
   -.189E+04 -.187E+04 -.185E+04   0.189E+04 0.187E+04 0.185E+04   0.563E+00 0.286E+00 0.456E+00   -.629E-03 -.262E-03 0.286E-03
   -.979E+03 -.977E+03 -.943E+03   0.980E+03 0.977E+03 0.942E+03   -.844E+00 -.959E+00 0.461E+00   0.284E-03 0.134E-03 0.861E-03
   0.991E+01 0.150E+02 0.151E+02   -.995E+01 -.149E+02 -.149E+02   0.383E-01 -.111E+00 -.119E+00   0.889E-03 0.110E-02 0.109E-02
   -.188E+04 -.189E+04 -.186E+04   0.188E+04 0.189E+04 0.186E+04   0.305E+00 0.410E+00 0.340E+00   -.155E-03 -.528E-03 0.577E-04
   -.936E+03 -.953E+03 -.938E+03   0.936E+03 0.953E+03 0.937E+03   0.374E+00 0.710E+00 0.375E+00   0.898E-03 0.565E-03 0.776E-03
   0.161E+02 0.108E+02 0.148E+02   -.160E+02 -.108E+02 -.146E+02   -.105E+00 -.528E-01 -.191E+00   0.124E-02 0.926E-03 0.110E-02
   -.189E+04 -.189E+04 -.189E+04   0.189E+04 0.189E+04 0.189E+04   0.330E+00 0.377E+00 0.334E+00   -.225E-03 -.144E-03 -.195E-03
   -.951E+03 -.935E+03 -.935E+03   0.950E+03 0.935E+03 0.934E+03   0.643E+00 0.487E+00 0.503E+00   0.286E-03 0.921E-03 0.927E-03
   0.148E+02 0.144E+02 0.148E+02   -.148E+02 -.144E+02 -.148E+02   -.458E-01 -.593E-01 0.266E-01   0.114E-02 0.122E-02 0.122E-02
   -.190E+04 -.186E+04 -.187E+04   0.190E+04 0.186E+04 0.187E+04   0.373E+00 0.446E+00 0.181E+00   -.660E-03 0.300E-03 -.177E-03
   -.980E+03 -.943E+03 -.976E+03   0.981E+03 0.942E+03 0.977E+03   -.860E+00 0.508E+00 -.870E+00   0.263E-03 0.830E-03 0.101E-03
   0.109E+02 0.133E+02 0.125E+02   -.106E+02 -.134E+02 -.122E+02   -.221E+00 0.125E+00 -.262E+00   0.105E-02 0.130E-02 0.101E-02
   -.933E+03 -.974E+03 -.974E+03   0.933E+03 0.975E+03 0.975E+03   0.563E+00 -.705E+00 -.685E+00   0.111E-02 0.256E-03 0.244E-03
   0.158E+02 0.143E+02 0.106E+02   -.157E+02 -.141E+02 -.105E+02   -.100E+00 -.182E+00 -.368E-01   0.123E-02 0.113E-02 0.871E-03
   -.186E+04 -.188E+04 -.188E+04   0.186E+04 0.188E+04 0.188E+04   0.391E+00 0.143E+01 0.129E+00   0.433E-04 -.414E-03 -.336E-03
   -.939E+03 -.936E+03 -.937E+03   0.939E+03 0.935E+03 0.937E+03   0.520E+00 0.375E+00 0.468E+00   0.636E-03 0.102E-02 0.720E-03
   0.171E+02 0.163E+02 0.163E+02   -.172E+02 -.161E+02 -.161E+02   0.694E-01 -.185E+00 -.181E+00   0.128E-02 0.116E-02 0.111E-02
   -.189E+04 -.189E+04 -.189E+04   0.189E+04 0.189E+04 0.189E+04   0.392E+00 0.233E+00 0.255E+00   -.546E-03 -.376E-04 -.214E-03
   -.936E+03 -.936E+03 -.936E+03   0.936E+03 0.936E+03 0.936E+03   0.443E+00 0.514E+00 0.508E+00   0.686E-03 0.886E-03 0.710E-03
   0.108E+02 0.121E+02 0.129E+02   -.105E+02 -.119E+02 -.130E+02   -.227E+00 -.262E+00 0.136E+00   0.108E-02 0.109E-02 0.124E-02
   -.187E+04 -.186E+04 -.189E+04   0.187E+04 0.186E+04 0.189E+04   0.422E+00 0.322E+00 0.494E+00   -.843E-04 0.148E-03 -.626E-03
   -.937E+03 -.938E+03 -.955E+03   0.937E+03 0.938E+03 0.954E+03   0.337E+00 0.371E+00 0.694E+00   0.917E-03 0.847E-03 0.434E-03
   0.155E+02 0.145E+02 0.141E+02   -.155E+02 -.145E+02 -.141E+02   -.463E-02 -.186E-01 -.305E-01   0.126E-02 0.120E-02 0.112E-02
   -.186E+04 -.188E+04 -.188E+04   0.186E+04 0.188E+04 0.188E+04   0.226E+00 0.148E+00 0.140E+01   0.156E-03 -.351E-03 -.495E-03
   -.939E+03 -.937E+03 -.936E+03   0.938E+03 0.937E+03 0.936E+03   0.556E+00 0.470E+00 0.361E+00   0.690E-03 0.810E-03 0.934E-03
   0.147E+02 0.146E+02 0.142E+02   -.146E+02 -.146E+02 -.141E+02   -.463E-01 0.219E-01 -.721E-01   0.116E-02 0.126E-02 0.116E-02
   -.146E+04 -.149E+04 -.149E+04   0.146E+04 0.149E+04 0.149E+04   0.205E+00 -.346E+00 -.397E+00   0.187E-03 -.537E-04 -.162E-03
   -.559E+03 -.563E+03 -.563E+03   0.559E+03 0.564E+03 0.564E+03   -.175E+00 -.139E+01 -.110E+01   -.175E-03 -.673E-04 -.173E-03
   -.134E+03 -.164E+03 -.987E+02   0.135E+03 0.169E+03 0.961E+02   -.147E+01 -.477E+01 0.254E+01   -.525E-04 -.288E-04 -.520E-04
   -.204E+03 -.173E+03 -.170E+03   0.206E+03 0.173E+03 0.170E+03   -.196E+01 -.158E+00 0.501E-02   0.628E-04 -.191E-04 -.423E-04
   -.152E+03 -.945E+02 -.140E+03   0.156E+03 0.924E+02 0.143E+03   -.430E+01 0.210E+01 -.282E+01   -.311E-04 -.507E-04 -.420E-04
   -.103E+03 -.149E+03 -.172E+03   0.991E+02 0.150E+03 0.176E+03   0.412E+01 -.933E+00 -.357E+01   -.574E-04 -.314E-04 -.309E-04
 -----------------------------------------------------------------------------------------------
   0.648E+01 0.782E+01 0.768E+01   0.540E-12 -.682E-12 -.517E-11   -.651E+01 -.784E+01 -.771E+01   0.146E-01 0.158E-01 0.141E-01


 POSITION                                       TOTAL-FORCE (eV/Angst)
 -----------------------------------------------------------------------------------
      1.20287     -0.60143     -0.60143         0.064776      0.067269      0.019615
      1.20287      1.20287     -2.40573         0.068048      0.019601      0.066721
      1.20287      3.00717     -4.21003         0.047978      0.056092      0.056876
      3.00717     -2.40573     -0.60143         0.053166      0.059815      0.051209
      3.00717     -0.60143     -2.40573         0.022905      0.067302      0.066908
      3.00717      1.20287     -4.21003         0.054126      0.050318      0.059540
      4.81147     -4.21003     -0.60143         0.065218      0.049670      0.053108
      4.81147     -2.40573     -2.40573         0.047918      0.053992      0.050812
      4.81147     -0.60143     -4.21003         0.049181      0.052406      0.052260
      1.20287      1.20287      1.20287        -0.051113     -0.047555     -0.032262
      1.20287      3.00717     -0.60143        -0.051539     -0.029399     -0.051167
      1.20287      4.81147     -2.40573        -0.038711     -0.059077     -0.065161
      3.00717     -0.60143      1.20287        -0.058354     -0.047184     -0.031287
      3.00717      1.20287     -0.60143        -0.040341     -0.050957     -0.056823
      3.00717      3.00717     -2.40573        -0.057781     -0.026114     -0.049600
      4.81147     -2.40573      1.20287        -0.063655     -0.049163     -0.052265
      4.81147     -0.60143     -0.60143        -0.035064     -0.052404     -0.047528
      4.81147      1.20287     -2.40573        -0.035051     -0.041842     -0.056938
     10.15520      4.78755     -0.61759        -0.002328     -0.002569      0.002084
      4.80110      3.01069      2.97687        -0.001766     -0.002732      0.001251
      2.99214      2.99800      1.18863        -0.000202     -0.000893     -0.000738
      6.57878      8.38788     -0.61577        -0.001277     -0.004741     -0.000533
      6.59059      1.19835      2.98389         0.000167     -0.002018     -0.001190
      4.79690      1.19220      1.18965        -0.001160     -0.000891      0.000422
      8.37579      1.17874      4.77411        -0.003395     -0.005647     -0.003583
      8.39984     -0.61326      2.98526         0.001566     -0.002962     -0.001911
      6.60781     -0.60596      1.19363        -0.000308     -0.000414     -0.000156
     10.16330      1.20084      2.97488        -0.003510     -0.000515     -0.000523
      4.79881      4.79235      1.19721        -0.001489     -0.001514     -0.000834
      3.00105      4.80675     -0.60722        -0.000063     -0.000743      0.000520
      6.58529      2.99263      1.17715        -0.000867     -0.001239      0.000259
      4.79711      3.00009     -0.61725        -0.000747     -0.000722      0.000048
      8.40527      2.97411      2.97781        -0.001757     -0.001088     -0.000950
      8.39488      1.19323      1.18146         0.000611     -0.000139     -0.000309
      6.60520      1.19571     -0.61434        -0.001298      0.000405      0.000884
      4.77489      8.39050      1.16013         0.000967     -0.003049     -0.001563
      4.79031      6.60181     -0.62635         0.001525     -0.003116     -0.000782
      3.00104      6.61630     -2.41576         0.000134     -0.000545      0.000836
      6.57656      6.61730      1.15420        -0.001562     -0.003043     -0.002095
      6.59131      4.79905     -0.61398         0.000380     -0.004372     -0.000323
      4.80291      4.80732     -2.41573        -0.000042     -0.000884      0.000202
      8.41039      4.80070      1.16747        -0.002415     -0.003033      0.000685
      8.39363      2.99695     -0.61971         0.001105     -0.002166      0.001907
      6.60743      3.00390     -2.41540        -0.000196     -0.001513      0.000025
      6.69156      4.90227      3.08271        -0.005942     -0.004171     -0.000585
      7.86752      6.21952      4.43138        -0.002610     -0.002029     -0.005012
      8.16059      7.15285      3.93231        -0.001559     -0.005282     -0.006302
      8.27913      5.21022      3.25056        -0.005269     -0.007245     -0.001992
      8.72273      5.79847      4.98090        -0.005305     -0.002406     -0.004829
      7.04861      6.40486      5.14206        -0.003096     -0.001495     -0.008935
 -----------------------------------------------------------------------------------
    total drift:                               -0.013721     -0.011182     -0.015686


--------------------------------------------------------------------------------------------------------



  FREE ENERGIE OF THE ION-ELECTRON SYSTEM (eV)
  ---------------------------------------------------
  free  energy   TOTEN  =       -85.15000167 eV

  energy  without entropy=      -85.13234753  energy(sigma->0) =      -85.14411696

 d Force = 0.8614089E-04[ 0.732E-04, 0.990E-04]  d Energy = 0.1069077E-03-0.208E-04
 d Force =-0.4266886E+02[-0.427E+02,-0.427E+02]  d Ewald  =-0.4266886E+02-0.241E-05


--------------------------------------------------------------------------------------------------------


    POTLOK:  cpu time    3.2607: real time    3.2729


--------------------------------------------------------------------------------------------------------


 stress matrix after NEB project (eV)
    -11.63847      3.13307      3.27325
      3.13307    -12.06483      3.41554
      3.27326      3.41554    -11.93893
  FORCES: max atom, RMS     0.009574    0.003596
  FORCE total and by dimension    0.025424    0.008935
  Stress total and by dimension   22.089471   12.064833
 Quasi-Newton relaxation of ions (Broydens 2nd method)
  g(Force)  = 0.780E-05   g(Stress)= 0.000E+00

 retain information from N= 10 steps
 eigenvalues of (default step * inverse Hessian matrix)
  average eigenvalue of G= 135.6266
 eigenvalue spectrum of G is462.2815340.8984228.6903190.0003  9.2773 31.4584 31.4584 35.6298 13.2858 13.2858


--------------------------------------------------------------------------------------------------------



 reached required accuracy - stopping structural energy minimisation
     LOOP+:  cpu time  810.5643: real time  811.7016
    4ORBIT:  cpu time    0.0000: real time    0.0000

 total amount of memory used by VASP on root node   292254. kBytes
========================================================================

   base      :      30000. kBytes
   nonlr-proj:      15892. kBytes
   fftplans  :       5374. kBytes
   grid      :      10087. kBytes
   one-center:        202. kBytes
   wavefun   :     230699. kBytes



 General timing and accounting informations for this job:
 ========================================================

                  Total CPU time used (sec):    17186.572
                            User time (sec):    16395.165
                          System time (sec):      791.408
                         Elapsed time (sec):    17213.850

                   Maximum memory used (kb):      530032.
                   Average memory used (kb):           0.

                          Minor page faults:      2014965
                          Major page faults:           21
                 Voluntary context switches:       792056
