<?xml version="1.0" encoding="ISO-8859-1"?>
<modeling>
 <generator>
 <i name="program" type="string">vasp</i>
