LAMMPS data file. CGCMM style. atom_style full generated by VMD/TopoTools v1.5 on Wed Feb 24 13:22:30 GMT 2016
 684 atoms
 666 bonds
 1296 angles
 1782 dihedrals
 0 impropers
 2 atom types
 2 bond types
 3 angle types
 3 dihedral types
 0 improper types
 -18.231160 19.210635  xlo xhi
 -11.499277 10.924223  ylo yhi
 -15.947147 17.354252  zlo zhi

# Pair Coeffs
#
# 1  CT
# 2  HC

# Bond Coeffs
#
# 1  CT-CT
# 2  CT-HC

# Angle Coeffs
#
# 1  CT-CT-CT
# 2  CT-CT-HC
# 3  HC-CT-HC

# Dihedral Coeffs
#
# 1  CT-CT-CT-CT
# 2  CT-CT-CT-HC
# 3  HC-CT-CT-HC

 Masses

 1 12.011000 # CT
 2 1.008000 # HC

 Atoms

1 1 1 -0.120000 -15.616862 -7.752526 -4.260297 # CT CYC
2 1 1 -0.120000 -15.616862 -7.752526 -2.724298 # CT CYC
3 1 1 -0.120000 -14.185863 -7.752526 -2.166297 # CT CYC
4 1 1 -0.120000 -13.369863 -6.576527 -2.724298 # CT CYC
5 1 1 -0.120000 -13.369863 -6.576527 -4.260297 # CT CYC
6 1 1 -0.120000 -14.801863 -6.576527 -4.817297 # CT CYC
7 1 2 0.060000 -16.663862 -7.701527 -4.639297 # HC CYC
8 1 2 0.060000 -15.187862 -8.711527 -4.632298 # HC CYC
9 1 2 0.060000 -16.170862 -8.642527 -2.345297 # HC CYC
10 1 2 0.060000 -16.160862 -6.853527 -2.352297 # HC CYC
11 1 2 0.060000 -13.682862 -8.711527 -2.431297 # HC CYC
12 1 2 0.060000 -14.212862 -7.701527 -1.053297 # HC CYC
13 1 2 0.060000 -12.322863 -6.627526 -2.345297 # HC CYC
14 1 2 0.060000 -13.798862 -5.617527 -2.352297 # HC CYC
15 1 2 0.060000 -12.825863 -7.474526 -4.632298 # HC CYC
16 1 2 0.060000 -12.815863 -5.686526 -4.639297 # HC CYC
17 1 2 0.060000 -14.774862 -6.627526 -5.931297 # HC CYC
18 1 2 0.060000 -15.303863 -5.617527 -4.553297 # HC CYC
19 1 1 -0.180000 -13.474862 -6.357527 -13.192297 # CT HEX
20 1 1 -0.120000 -11.985863 -6.336526 -12.797297 # CT HEX
21 1 1 -0.120000 -11.413862 -7.764526 -12.872297 # CT HEX
22 1 1 -0.120000 -9.925862 -7.743526 -12.478298 # CT HEX
23 1 2 0.060000 -14.012862 -6.992527 -12.520298 # HC HEX
24 1 2 0.060000 -13.871862 -5.364527 -13.140297 # HC HEX
25 1 2 0.060000 -13.573862 -6.728527 -14.190298 # HC HEX
26 1 2 0.060000 -11.447863 -5.701527 -13.470297 # HC HEX
27 1 2 0.060000 -11.885862 -5.964527 -11.799297 # HC HEX
28 1 2 0.060000 -11.951862 -8.399527 -12.200297 # HC HEX
29 1 2 0.060000 -11.512862 -8.136526 -13.870296 # HC HEX
30 1 2 0.060000 -9.823862 -7.364527 -11.461298 # HC HEX
31 1 2 0.060000 -9.376863 -7.096527 -13.163298 # HC HEX
32 1 1 -0.120000 -9.353863 -9.170527 -12.553297 # CT HEX
33 1 2 0.060000 -9.454863 -9.549526 -13.569298 # HC HEX
34 1 2 0.060000 -9.901862 -9.817527 -11.868298 # HC HEX
35 1 1 -0.180000 -7.866862 -9.149527 -12.159298 # CT HEX
36 1 2 0.060000 -7.461863 -10.159527 -12.211298 # HC HEX
37 1 2 0.060000 -7.317863 -8.502526 -12.843298 # HC HEX
38 1 2 0.060000 -7.764862 -8.770527 -11.142298 # HC HEX
39 1 1 -0.120000 -15.616862 -7.752526 12.390402 # CT CYC
40 1 1 -0.120000 -15.616862 -7.752526 13.926402 # CT CYC
41 1 1 -0.120000 -14.185863 -7.752526 14.484403 # CT CYC
42 1 1 -0.120000 -13.369863 -6.576527 13.926402 # CT CYC
43 1 1 -0.120000 -13.369863 -6.576527 12.390402 # CT CYC
44 1 1 -0.120000 -14.801863 -6.576527 11.833403 # CT CYC
45 1 2 0.060000 -16.663862 -7.701527 12.011402 # HC CYC
46 1 2 0.060000 -15.187862 -8.711527 12.018402 # HC CYC
47 1 2 0.060000 -16.170862 -8.642527 14.305403 # HC CYC
48 1 2 0.060000 -16.160862 -6.853527 14.298403 # HC CYC
49 1 2 0.060000 -13.682862 -8.711527 14.219402 # HC CYC
50 1 2 0.060000 -14.212862 -7.701527 15.597403 # HC CYC
51 1 2 0.060000 -12.322863 -6.627526 14.305403 # HC CYC
52 1 2 0.060000 -13.798862 -5.617527 14.298403 # HC CYC
53 1 2 0.060000 -12.825863 -7.474526 12.018402 # HC CYC
54 1 2 0.060000 -12.815863 -5.686526 12.011402 # HC CYC
55 1 2 0.060000 -14.774862 -6.627526 10.719402 # HC CYC
56 1 2 0.060000 -15.303863 -5.617527 12.097403 # HC CYC
57 1 1 -0.180000 -13.474862 -6.357527 3.458402 # CT HEX
58 1 1 -0.120000 -11.985863 -6.336526 3.853403 # CT HEX
59 1 1 -0.120000 -11.413862 -7.764526 3.778402 # CT HEX
60 1 1 -0.120000 -9.925862 -7.743526 4.172402 # CT HEX
61 1 2 0.060000 -14.012862 -6.992527 4.130402 # HC HEX
62 1 2 0.060000 -13.871862 -5.364527 3.510402 # HC HEX
63 1 2 0.060000 -13.573862 -6.728527 2.460402 # HC HEX
64 1 2 0.060000 -11.447863 -5.701527 3.180402 # HC HEX
65 1 2 0.060000 -11.885862 -5.964527 4.851402 # HC HEX
66 1 2 0.060000 -11.951862 -8.399527 4.450402 # HC HEX
67 1 2 0.060000 -11.512862 -8.136526 2.780403 # HC HEX
68 1 2 0.060000 -9.823862 -7.364527 5.189402 # HC HEX
69 1 2 0.060000 -9.376863 -7.096527 3.487402 # HC HEX
70 1 1 -0.120000 -9.353863 -9.170527 4.097402 # CT HEX
71 1 2 0.060000 -9.454863 -9.549526 3.081402 # HC HEX
72 1 2 0.060000 -9.901862 -9.817527 4.782403 # HC HEX
73 1 1 -0.180000 -7.866862 -9.149527 4.491402 # CT HEX
74 1 2 0.060000 -7.461863 -10.159527 4.439402 # HC HEX
75 1 2 0.060000 -7.317863 -8.502526 3.807402 # HC HEX
76 1 2 0.060000 -7.764862 -8.770527 5.508402 # HC HEX
77 1 1 -0.120000 -15.616862 -0.278026 -4.260297 # CT CYC
78 1 1 -0.120000 -15.616862 -0.278026 -2.724298 # CT CYC
79 1 1 -0.120000 -14.185863 -0.278026 -2.166297 # CT CYC
80 1 1 -0.120000 -13.369863 0.897974 -2.724298 # CT CYC
81 1 1 -0.120000 -13.369863 0.897974 -4.260297 # CT CYC
82 1 1 -0.120000 -14.801863 0.897974 -4.817297 # CT CYC
83 1 2 0.060000 -16.663862 -0.227026 -4.639297 # HC CYC
84 1 2 0.060000 -15.187862 -1.237026 -4.632298 # HC CYC
85 1 2 0.060000 -16.170862 -1.168026 -2.345297 # HC CYC
86 1 2 0.060000 -16.160862 0.620974 -2.352297 # HC CYC
87 1 2 0.060000 -13.682862 -1.237026 -2.431297 # HC CYC
88 1 2 0.060000 -14.212862 -0.227026 -1.053297 # HC CYC
89 1 2 0.060000 -12.322863 0.846974 -2.345297 # HC CYC
90 1 2 0.060000 -13.798862 1.856974 -2.352297 # HC CYC
91 1 2 0.060000 -12.825863 -0.000026 -4.632298 # HC CYC
92 1 2 0.060000 -12.815863 1.787974 -4.639297 # HC CYC
93 1 2 0.060000 -14.774862 0.846974 -5.931297 # HC CYC
94 1 2 0.060000 -15.303863 1.856974 -4.553297 # HC CYC
95 1 1 -0.180000 -13.474862 1.116974 -13.192297 # CT HEX
96 1 1 -0.120000 -11.985863 1.137974 -12.797297 # CT HEX
97 1 1 -0.120000 -11.413862 -0.290026 -12.872297 # CT HEX
98 1 1 -0.120000 -9.925862 -0.269026 -12.478298 # CT HEX
99 1 2 0.060000 -14.012862 0.481974 -12.520298 # HC HEX
100 1 2 0.060000 -13.871862 2.109974 -13.140297 # HC HEX
101 1 2 0.060000 -13.573862 0.745974 -14.190298 # HC HEX
102 1 2 0.060000 -11.447863 1.772974 -13.470297 # HC HEX
103 1 2 0.060000 -11.885862 1.509974 -11.799297 # HC HEX
104 1 2 0.060000 -11.951862 -0.925026 -12.200297 # HC HEX
105 1 2 0.060000 -11.512862 -0.662026 -13.870296 # HC HEX
106 1 2 0.060000 -9.823862 0.109974 -11.461298 # HC HEX
107 1 2 0.060000 -9.376863 0.377974 -13.163298 # HC HEX
108 1 1 -0.120000 -9.353863 -1.696026 -12.553297 # CT HEX
109 1 2 0.060000 -9.454863 -2.075027 -13.569298 # HC HEX
110 1 2 0.060000 -9.901862 -2.343026 -11.868298 # HC HEX
111 1 1 -0.180000 -7.866862 -1.675026 -12.159298 # CT HEX
112 1 2 0.060000 -7.461863 -2.685026 -12.211298 # HC HEX
113 1 2 0.060000 -7.317863 -1.028026 -12.843298 # HC HEX
114 1 2 0.060000 -7.764862 -1.296026 -11.142298 # HC HEX
115 1 1 -0.120000 -15.616862 -0.278026 12.390402 # CT CYC
116 1 1 -0.120000 -15.616862 -0.278026 13.926402 # CT CYC
117 1 1 -0.120000 -14.185863 -0.278026 14.484403 # CT CYC
118 1 1 -0.120000 -13.369863 0.897974 13.926402 # CT CYC
119 1 1 -0.120000 -13.369863 0.897974 12.390402 # CT CYC
120 1 1 -0.120000 -14.801863 0.897974 11.833403 # CT CYC
121 1 2 0.060000 -16.663862 -0.227026 12.011402 # HC CYC
122 1 2 0.060000 -15.187862 -1.237026 12.018402 # HC CYC
123 1 2 0.060000 -16.170862 -1.168026 14.305403 # HC CYC
124 1 2 0.060000 -16.160862 0.620974 14.298403 # HC CYC
125 1 2 0.060000 -13.682862 -1.237026 14.219402 # HC CYC
126 1 2 0.060000 -14.212862 -0.227026 15.597403 # HC CYC
127 1 2 0.060000 -12.322863 0.846974 14.305403 # HC CYC
128 1 2 0.060000 -13.798862 1.856974 14.298403 # HC CYC
129 1 2 0.060000 -12.825863 -0.000026 12.018402 # HC CYC
130 1 2 0.060000 -12.815863 1.787974 12.011402 # HC CYC
131 1 2 0.060000 -14.774862 0.846974 10.719402 # HC CYC
132 1 2 0.060000 -15.303863 1.856974 12.097403 # HC CYC
133 1 1 -0.180000 -13.474862 1.116974 3.458402 # CT HEX
134 1 1 -0.120000 -11.985863 1.137974 3.853403 # CT HEX
135 1 1 -0.120000 -11.413862 -0.290026 3.778402 # CT HEX
136 1 1 -0.120000 -9.925862 -0.269026 4.172402 # CT HEX
137 1 2 0.060000 -14.012862 0.481974 4.130402 # HC HEX
138 1 2 0.060000 -13.871862 2.109974 3.510402 # HC HEX
139 1 2 0.060000 -13.573862 0.745974 2.460402 # HC HEX
140 1 2 0.060000 -11.447863 1.772974 3.180402 # HC HEX
141 1 2 0.060000 -11.885862 1.509974 4.851402 # HC HEX
142 1 2 0.060000 -11.951862 -0.925026 4.450402 # HC HEX
143 1 2 0.060000 -11.512862 -0.662026 2.780403 # HC HEX
144 1 2 0.060000 -9.823862 0.109974 5.189402 # HC HEX
145 1 2 0.060000 -9.376863 0.377974 3.487402 # HC HEX
146 1 1 -0.120000 -9.353863 -1.696026 4.097402 # CT HEX
147 1 2 0.060000 -9.454863 -2.075027 3.081402 # HC HEX
148 1 2 0.060000 -9.901862 -2.343026 4.782403 # HC HEX
149 1 1 -0.180000 -7.866862 -1.675026 4.491402 # CT HEX
150 1 2 0.060000 -7.461863 -2.685026 4.439402 # HC HEX
151 1 2 0.060000 -7.317863 -1.028026 3.807402 # HC HEX
152 1 2 0.060000 -7.764862 -1.296026 5.508402 # HC HEX
153 1 1 -0.120000 -15.616862 7.196474 -4.260297 # CT CYC
154 1 1 -0.120000 -15.616862 7.196474 -2.724298 # CT CYC
155 1 1 -0.120000 -14.185863 7.196474 -2.166297 # CT CYC
156 1 1 -0.120000 -13.369863 8.372474 -2.724298 # CT CYC
157 1 1 -0.120000 -13.369863 8.372474 -4.260297 # CT CYC
158 1 1 -0.120000 -14.801863 8.372474 -4.817297 # CT CYC
159 1 2 0.060000 -16.663862 7.247474 -4.639297 # HC CYC
160 1 2 0.060000 -15.187862 6.237474 -4.632298 # HC CYC
161 1 2 0.060000 -16.170862 6.306474 -2.345297 # HC CYC
162 1 2 0.060000 -16.160862 8.095474 -2.352297 # HC CYC
163 1 2 0.060000 -13.682862 6.237474 -2.431297 # HC CYC
164 1 2 0.060000 -14.212862 7.247474 -1.053297 # HC CYC
165 1 2 0.060000 -12.322863 8.321474 -2.345297 # HC CYC
166 1 2 0.060000 -13.798862 9.331474 -2.352297 # HC CYC
167 1 2 0.060000 -12.825863 7.474474 -4.632298 # HC CYC
168 1 2 0.060000 -12.815863 9.262474 -4.639297 # HC CYC
169 1 2 0.060000 -14.774862 8.321474 -5.931297 # HC CYC
170 1 2 0.060000 -15.303863 9.331474 -4.553297 # HC CYC
171 1 1 -0.180000 -13.474862 8.591474 -13.192297 # CT HEX
172 1 1 -0.120000 -11.985863 8.612473 -12.797297 # CT HEX
173 1 1 -0.120000 -11.413862 7.184474 -12.872297 # CT HEX
174 1 1 -0.120000 -9.925862 7.205474 -12.478298 # CT HEX
175 1 2 0.060000 -14.012862 7.956474 -12.520298 # HC HEX
176 1 2 0.060000 -13.871862 9.584474 -13.140297 # HC HEX
177 1 2 0.060000 -13.573862 8.220474 -14.190298 # HC HEX
178 1 2 0.060000 -11.447863 9.247474 -13.470297 # HC HEX
179 1 2 0.060000 -11.885862 8.984474 -11.799297 # HC HEX
180 1 2 0.060000 -11.951862 6.549474 -12.200297 # HC HEX
181 1 2 0.060000 -11.512862 6.812474 -13.870296 # HC HEX
182 1 2 0.060000 -9.823862 7.584474 -11.461298 # HC HEX
183 1 2 0.060000 -9.376863 7.852474 -13.163298 # HC HEX
184 1 1 -0.120000 -9.353863 5.778474 -12.553297 # CT HEX
185 1 2 0.060000 -9.454863 5.399474 -13.569298 # HC HEX
186 1 2 0.060000 -9.901862 5.131474 -11.868298 # HC HEX
187 1 1 -0.180000 -7.866862 5.799474 -12.159298 # CT HEX
188 1 2 0.060000 -7.461863 4.789474 -12.211298 # HC HEX
189 1 2 0.060000 -7.317863 6.446474 -12.843298 # HC HEX
190 1 2 0.060000 -7.764862 6.178474 -11.142298 # HC HEX
191 1 1 -0.120000 -15.616862 7.196474 12.390402 # CT CYC
192 1 1 -0.120000 -15.616862 7.196474 13.926402 # CT CYC
193 1 1 -0.120000 -14.185863 7.196474 14.484403 # CT CYC
194 1 1 -0.120000 -13.369863 8.372474 13.926402 # CT CYC
195 1 1 -0.120000 -13.369863 8.372474 12.390402 # CT CYC
196 1 1 -0.120000 -14.801863 8.372474 11.833403 # CT CYC
197 1 2 0.060000 -16.663862 7.247474 12.011402 # HC CYC
198 1 2 0.060000 -15.187862 6.237474 12.018402 # HC CYC
199 1 2 0.060000 -16.170862 6.306474 14.305403 # HC CYC
200 1 2 0.060000 -16.160862 8.095474 14.298403 # HC CYC
201 1 2 0.060000 -13.682862 6.237474 14.219402 # HC CYC
202 1 2 0.060000 -14.212862 7.247474 15.597403 # HC CYC
203 1 2 0.060000 -12.322863 8.321474 14.305403 # HC CYC
204 1 2 0.060000 -13.798862 9.331474 14.298403 # HC CYC
205 1 2 0.060000 -12.825863 7.474474 12.018402 # HC CYC
206 1 2 0.060000 -12.815863 9.262474 12.011402 # HC CYC
207 1 2 0.060000 -14.774862 8.321474 10.719402 # HC CYC
208 1 2 0.060000 -15.303863 9.331474 12.097403 # HC CYC
209 1 1 -0.180000 -13.474862 8.591474 3.458402 # CT HEX
210 1 1 -0.120000 -11.985863 8.612473 3.853403 # CT HEX
211 1 1 -0.120000 -11.413862 7.184474 3.778402 # CT HEX
212 1 1 -0.120000 -9.925862 7.205474 4.172402 # CT HEX
213 1 2 0.060000 -14.012862 7.956474 4.130402 # HC HEX
214 1 2 0.060000 -13.871862 9.584474 3.510402 # HC HEX
215 1 2 0.060000 -13.573862 8.220474 2.460402 # HC HEX
216 1 2 0.060000 -11.447863 9.247474 3.180402 # HC HEX
217 1 2 0.060000 -11.885862 8.984474 4.851402 # HC HEX
218 1 2 0.060000 -11.951862 6.549474 4.450402 # HC HEX
219 1 2 0.060000 -11.512862 6.812474 2.780403 # HC HEX
220 1 2 0.060000 -9.823862 7.584474 5.189402 # HC HEX
221 1 2 0.060000 -9.376863 7.852474 3.487402 # HC HEX
222 1 1 -0.120000 -9.353863 5.778474 4.097402 # CT HEX
223 1 2 0.060000 -9.454863 5.399474 3.081402 # HC HEX
224 1 2 0.060000 -9.901862 5.131474 4.782403 # HC HEX
225 1 1 -0.180000 -7.866862 5.799474 4.491402 # CT HEX
226 1 2 0.060000 -7.461863 4.789474 4.439402 # HC HEX
227 1 2 0.060000 -7.317863 6.446474 3.807402 # HC HEX
228 1 2 0.060000 -7.764862 6.178474 5.508402 # HC HEX
229 1 1 -0.120000 -3.136263 -7.752526 -4.260297 # CT CYC
230 1 1 -0.120000 -3.136263 -7.752526 -2.724298 # CT CYC
231 1 1 -0.120000 -1.705263 -7.752526 -2.166297 # CT CYC
232 1 1 -0.120000 -0.889263 -6.576527 -2.724298 # CT CYC
233 1 1 -0.120000 -0.889263 -6.576527 -4.260297 # CT CYC
234 1 1 -0.120000 -2.321263 -6.576527 -4.817297 # CT CYC
235 1 2 0.060000 -4.183263 -7.701527 -4.639297 # HC CYC
236 1 2 0.060000 -2.707263 -8.711527 -4.632298 # HC CYC
237 1 2 0.060000 -3.690263 -8.642527 -2.345297 # HC CYC
238 1 2 0.060000 -3.680263 -6.853527 -2.352297 # HC CYC
239 1 2 0.060000 -1.202263 -8.711527 -2.431297 # HC CYC
240 1 2 0.060000 -1.732263 -7.701527 -1.053297 # HC CYC
241 1 2 0.060000 0.157737 -6.627526 -2.345297 # HC CYC
242 1 2 0.060000 -1.318263 -5.617527 -2.352297 # HC CYC
243 1 2 0.060000 -0.345263 -7.474526 -4.632298 # HC CYC
244 1 2 0.060000 -0.335263 -5.686526 -4.639297 # HC CYC
245 1 2 0.060000 -2.294263 -6.627526 -5.931297 # HC CYC
246 1 2 0.060000 -2.823263 -5.617527 -4.553297 # HC CYC
247 1 1 -0.180000 -0.994263 -6.357527 -13.192297 # CT HEX
248 1 1 -0.120000 0.494737 -6.336526 -12.797297 # CT HEX
249 1 1 -0.120000 1.066737 -7.764526 -12.872297 # CT HEX
250 1 1 -0.120000 2.554737 -7.743526 -12.478298 # CT HEX
251 1 2 0.060000 -1.532263 -6.992527 -12.520298 # HC HEX
252 1 2 0.060000 -1.391263 -5.364527 -13.140297 # HC HEX
253 1 2 0.060000 -1.093263 -6.728527 -14.190298 # HC HEX
254 1 2 0.060000 1.032737 -5.701527 -13.470297 # HC HEX
255 1 2 0.060000 0.594737 -5.964527 -11.799297 # HC HEX
256 1 2 0.060000 0.528737 -8.399527 -12.200297 # HC HEX
257 1 2 0.060000 0.967737 -8.136526 -13.870296 # HC HEX
258 1 2 0.060000 2.656737 -7.364527 -11.461298 # HC HEX
259 1 2 0.060000 3.103737 -7.096527 -13.163298 # HC HEX
260 1 1 -0.120000 3.126737 -9.170527 -12.553297 # CT HEX
261 1 2 0.060000 3.025737 -9.549526 -13.569298 # HC HEX
262 1 2 0.060000 2.578737 -9.817527 -11.868298 # HC HEX
263 1 1 -0.180000 4.613737 -9.149527 -12.159298 # CT HEX
264 1 2 0.060000 5.018737 -10.159527 -12.211298 # HC HEX
265 1 2 0.060000 5.162737 -8.502526 -12.843298 # HC HEX
266 1 2 0.060000 4.715737 -8.770527 -11.142298 # HC HEX
267 1 1 -0.120000 -3.136263 -7.752526 12.390402 # CT CYC
268 1 1 -0.120000 -3.136263 -7.752526 13.926402 # CT CYC
269 1 1 -0.120000 -1.705263 -7.752526 14.484403 # CT CYC
270 1 1 -0.120000 -0.889263 -6.576527 13.926402 # CT CYC
271 1 1 -0.120000 -0.889263 -6.576527 12.390402 # CT CYC
272 1 1 -0.120000 -2.321263 -6.576527 11.833403 # CT CYC
273 1 2 0.060000 -4.183263 -7.701527 12.011402 # HC CYC
274 1 2 0.060000 -2.707263 -8.711527 12.018402 # HC CYC
275 1 2 0.060000 -3.690263 -8.642527 14.305403 # HC CYC
276 1 2 0.060000 -3.680263 -6.853527 14.298403 # HC CYC
277 1 2 0.060000 -1.202263 -8.711527 14.219402 # HC CYC
278 1 2 0.060000 -1.732263 -7.701527 15.597403 # HC CYC
279 1 2 0.060000 0.157737 -6.627526 14.305403 # HC CYC
280 1 2 0.060000 -1.318263 -5.617527 14.298403 # HC CYC
281 1 2 0.060000 -0.345263 -7.474526 12.018402 # HC CYC
282 1 2 0.060000 -0.335263 -5.686526 12.011402 # HC CYC
283 1 2 0.060000 -2.294263 -6.627526 10.719402 # HC CYC
284 1 2 0.060000 -2.823263 -5.617527 12.097403 # HC CYC
285 1 1 -0.180000 -0.994263 -6.357527 3.458402 # CT HEX
286 1 1 -0.120000 0.494737 -6.336526 3.853403 # CT HEX
287 1 1 -0.120000 1.066737 -7.764526 3.778402 # CT HEX
288 1 1 -0.120000 2.554737 -7.743526 4.172402 # CT HEX
289 1 2 0.060000 -1.532263 -6.992527 4.130402 # HC HEX
290 1 2 0.060000 -1.391263 -5.364527 3.510402 # HC HEX
291 1 2 0.060000 -1.093263 -6.728527 2.460402 # HC HEX
292 1 2 0.060000 1.032737 -5.701527 3.180402 # HC HEX
293 1 2 0.060000 0.594737 -5.964527 4.851402 # HC HEX
294 1 2 0.060000 0.528737 -8.399527 4.450402 # HC HEX
295 1 2 0.060000 0.967737 -8.136526 2.780403 # HC HEX
296 1 2 0.060000 2.656737 -7.364527 5.189402 # HC HEX
297 1 2 0.060000 3.103737 -7.096527 3.487402 # HC HEX
298 1 1 -0.120000 3.126737 -9.170527 4.097402 # CT HEX
299 1 2 0.060000 3.025737 -9.549526 3.081402 # HC HEX
300 1 2 0.060000 2.578737 -9.817527 4.782403 # HC HEX
301 1 1 -0.180000 4.613737 -9.149527 4.491402 # CT HEX
302 1 2 0.060000 5.018737 -10.159527 4.439402 # HC HEX
303 1 2 0.060000 5.162737 -8.502526 3.807402 # HC HEX
304 1 2 0.060000 4.715737 -8.770527 5.508402 # HC HEX
305 1 1 -0.120000 -3.136263 -0.278026 -4.260297 # CT CYC
306 1 1 -0.120000 -3.136263 -0.278026 -2.724298 # CT CYC
307 1 1 -0.120000 -1.705263 -0.278026 -2.166297 # CT CYC
308 1 1 -0.120000 -0.889263 0.897974 -2.724298 # CT CYC
309 1 1 -0.120000 -0.889263 0.897974 -4.260297 # CT CYC
310 1 1 -0.120000 -2.321263 0.897974 -4.817297 # CT CYC
311 1 2 0.060000 -4.183263 -0.227026 -4.639297 # HC CYC
312 1 2 0.060000 -2.707263 -1.237026 -4.632298 # HC CYC
313 1 2 0.060000 -3.690263 -1.168026 -2.345297 # HC CYC
314 1 2 0.060000 -3.680263 0.620974 -2.352297 # HC CYC
315 1 2 0.060000 -1.202263 -1.237026 -2.431297 # HC CYC
316 1 2 0.060000 -1.732263 -0.227026 -1.053297 # HC CYC
317 1 2 0.060000 0.157737 0.846974 -2.345297 # HC CYC
318 1 2 0.060000 -1.318263 1.856974 -2.352297 # HC CYC
319 1 2 0.060000 -0.345263 -0.000026 -4.632298 # HC CYC
320 1 2 0.060000 -0.335263 1.787974 -4.639297 # HC CYC
321 1 2 0.060000 -2.294263 0.846974 -5.931297 # HC CYC
322 1 2 0.060000 -2.823263 1.856974 -4.553297 # HC CYC
323 1 1 -0.180000 -0.994263 1.116974 -13.192297 # CT HEX
324 1 1 -0.120000 0.494737 1.137974 -12.797297 # CT HEX
325 1 1 -0.120000 1.066737 -0.290026 -12.872297 # CT HEX
326 1 1 -0.120000 2.554737 -0.269026 -12.478298 # CT HEX
327 1 2 0.060000 -1.532263 0.481974 -12.520298 # HC HEX
328 1 2 0.060000 -1.391263 2.109974 -13.140297 # HC HEX
329 1 2 0.060000 -1.093263 0.745974 -14.190298 # HC HEX
330 1 2 0.060000 1.032737 1.772974 -13.470297 # HC HEX
331 1 2 0.060000 0.594737 1.509974 -11.799297 # HC HEX
332 1 2 0.060000 0.528737 -0.925026 -12.200297 # HC HEX
333 1 2 0.060000 0.967737 -0.662026 -13.870296 # HC HEX
334 1 2 0.060000 2.656737 0.109974 -11.461298 # HC HEX
335 1 2 0.060000 3.103737 0.377974 -13.163298 # HC HEX
336 1 1 -0.120000 3.126737 -1.696026 -12.553297 # CT HEX
337 1 2 0.060000 3.025737 -2.075027 -13.569298 # HC HEX
338 1 2 0.060000 2.578737 -2.343026 -11.868298 # HC HEX
339 1 1 -0.180000 4.613737 -1.675026 -12.159298 # CT HEX
340 1 2 0.060000 5.018737 -2.685026 -12.211298 # HC HEX
341 1 2 0.060000 5.162737 -1.028026 -12.843298 # HC HEX
342 1 2 0.060000 4.715737 -1.296026 -11.142298 # HC HEX
343 1 1 -0.120000 -3.136263 -0.278026 12.390402 # CT CYC
344 1 1 -0.120000 -3.136263 -0.278026 13.926402 # CT CYC
345 1 1 -0.120000 -1.705263 -0.278026 14.484403 # CT CYC
346 1 1 -0.120000 -0.889263 0.897974 13.926402 # CT CYC
347 1 1 -0.120000 -0.889263 0.897974 12.390402 # CT CYC
348 1 1 -0.120000 -2.321263 0.897974 11.833403 # CT CYC
349 1 2 0.060000 -4.183263 -0.227026 12.011402 # HC CYC
350 1 2 0.060000 -2.707263 -1.237026 12.018402 # HC CYC
351 1 2 0.060000 -3.690263 -1.168026 14.305403 # HC CYC
352 1 2 0.060000 -3.680263 0.620974 14.298403 # HC CYC
353 1 2 0.060000 -1.202263 -1.237026 14.219402 # HC CYC
354 1 2 0.060000 -1.732263 -0.227026 15.597403 # HC CYC
355 1 2 0.060000 0.157737 0.846974 14.305403 # HC CYC
356 1 2 0.060000 -1.318263 1.856974 14.298403 # HC CYC
357 1 2 0.060000 -0.345263 -0.000026 12.018402 # HC CYC
358 1 2 0.060000 -0.335263 1.787974 12.011402 # HC CYC
359 1 2 0.060000 -2.294263 0.846974 10.719402 # HC CYC
360 1 2 0.060000 -2.823263 1.856974 12.097403 # HC CYC
361 1 1 -0.180000 -0.994263 1.116974 3.458402 # CT HEX
362 1 1 -0.120000 0.494737 1.137974 3.853403 # CT HEX
363 1 1 -0.120000 1.066737 -0.290026 3.778402 # CT HEX
364 1 1 -0.120000 2.554737 -0.269026 4.172402 # CT HEX
365 1 2 0.060000 -1.532263 0.481974 4.130402 # HC HEX
366 1 2 0.060000 -1.391263 2.109974 3.510402 # HC HEX
367 1 2 0.060000 -1.093263 0.745974 2.460402 # HC HEX
368 1 2 0.060000 1.032737 1.772974 3.180402 # HC HEX
369 1 2 0.060000 0.594737 1.509974 4.851402 # HC HEX
370 1 2 0.060000 0.528737 -0.925026 4.450402 # HC HEX
371 1 2 0.060000 0.967737 -0.662026 2.780403 # HC HEX
372 1 2 0.060000 2.656737 0.109974 5.189402 # HC HEX
373 1 2 0.060000 3.103737 0.377974 3.487402 # HC HEX
374 1 1 -0.120000 3.126737 -1.696026 4.097402 # CT HEX
375 1 2 0.060000 3.025737 -2.075027 3.081402 # HC HEX
376 1 2 0.060000 2.578737 -2.343026 4.782403 # HC HEX
377 1 1 -0.180000 4.613737 -1.675026 4.491402 # CT HEX
378 1 2 0.060000 5.018737 -2.685026 4.439402 # HC HEX
379 1 2 0.060000 5.162737 -1.028026 3.807402 # HC HEX
380 1 2 0.060000 4.715737 -1.296026 5.508402 # HC HEX
381 1 1 -0.120000 -3.136263 7.196474 -4.260297 # CT CYC
382 1 1 -0.120000 -3.136263 7.196474 -2.724298 # CT CYC
383 1 1 -0.120000 -1.705263 7.196474 -2.166297 # CT CYC
384 1 1 -0.120000 -0.889263 8.372474 -2.724298 # CT CYC
385 1 1 -0.120000 -0.889263 8.372474 -4.260297 # CT CYC
386 1 1 -0.120000 -2.321263 8.372474 -4.817297 # CT CYC
387 1 2 0.060000 -4.183263 7.247474 -4.639297 # HC CYC
388 1 2 0.060000 -2.707263 6.237474 -4.632298 # HC CYC
389 1 2 0.060000 -3.690263 6.306474 -2.345297 # HC CYC
390 1 2 0.060000 -3.680263 8.095474 -2.352297 # HC CYC
391 1 2 0.060000 -1.202263 6.237474 -2.431297 # HC CYC
392 1 2 0.060000 -1.732263 7.247474 -1.053297 # HC CYC
393 1 2 0.060000 0.157737 8.321474 -2.345297 # HC CYC
394 1 2 0.060000 -1.318263 9.331474 -2.352297 # HC CYC
395 1 2 0.060000 -0.345263 7.474474 -4.632298 # HC CYC
396 1 2 0.060000 -0.335263 9.262474 -4.639297 # HC CYC
397 1 2 0.060000 -2.294263 8.321474 -5.931297 # HC CYC
398 1 2 0.060000 -2.823263 9.331474 -4.553297 # HC CYC
399 1 1 -0.180000 -0.994263 8.591474 -13.192297 # CT HEX
400 1 1 -0.120000 0.494737 8.612473 -12.797297 # CT HEX
401 1 1 -0.120000 1.066737 7.184474 -12.872297 # CT HEX
402 1 1 -0.120000 2.554737 7.205474 -12.478298 # CT HEX
403 1 2 0.060000 -1.532263 7.956474 -12.520298 # HC HEX
404 1 2 0.060000 -1.391263 9.584474 -13.140297 # HC HEX
405 1 2 0.060000 -1.093263 8.220474 -14.190298 # HC HEX
406 1 2 0.060000 1.032737 9.247474 -13.470297 # HC HEX
407 1 2 0.060000 0.594737 8.984474 -11.799297 # HC HEX
408 1 2 0.060000 0.528737 6.549474 -12.200297 # HC HEX
409 1 2 0.060000 0.967737 6.812474 -13.870296 # HC HEX
410 1 2 0.060000 2.656737 7.584474 -11.461298 # HC HEX
411 1 2 0.060000 3.103737 7.852474 -13.163298 # HC HEX
412 1 1 -0.120000 3.126737 5.778474 -12.553297 # CT HEX
413 1 2 0.060000 3.025737 5.399474 -13.569298 # HC HEX
414 1 2 0.060000 2.578737 5.131474 -11.868298 # HC HEX
415 1 1 -0.180000 4.613737 5.799474 -12.159298 # CT HEX
416 1 2 0.060000 5.018737 4.789474 -12.211298 # HC HEX
417 1 2 0.060000 5.162737 6.446474 -12.843298 # HC HEX
418 1 2 0.060000 4.715737 6.178474 -11.142298 # HC HEX
419 1 1 -0.120000 -3.136263 7.196474 12.390402 # CT CYC
420 1 1 -0.120000 -3.136263 7.196474 13.926402 # CT CYC
421 1 1 -0.120000 -1.705263 7.196474 14.484403 # CT CYC
422 1 1 -0.120000 -0.889263 8.372474 13.926402 # CT CYC
423 1 1 -0.120000 -0.889263 8.372474 12.390402 # CT CYC
424 1 1 -0.120000 -2.321263 8.372474 11.833403 # CT CYC
425 1 2 0.060000 -4.183263 7.247474 12.011402 # HC CYC
426 1 2 0.060000 -2.707263 6.237474 12.018402 # HC CYC
427 1 2 0.060000 -3.690263 6.306474 14.305403 # HC CYC
428 1 2 0.060000 -3.680263 8.095474 14.298403 # HC CYC
429 1 2 0.060000 -1.202263 6.237474 14.219402 # HC CYC
430 1 2 0.060000 -1.732263 7.247474 15.597403 # HC CYC
431 1 2 0.060000 0.157737 8.321474 14.305403 # HC CYC
432 1 2 0.060000 -1.318263 9.331474 14.298403 # HC CYC
433 1 2 0.060000 -0.345263 7.474474 12.018402 # HC CYC
434 1 2 0.060000 -0.335263 9.262474 12.011402 # HC CYC
435 1 2 0.060000 -2.294263 8.321474 10.719402 # HC CYC
436 1 2 0.060000 -2.823263 9.331474 12.097403 # HC CYC
437 1 1 -0.180000 -0.994263 8.591474 3.458402 # CT HEX
438 1 1 -0.120000 0.494737 8.612473 3.853403 # CT HEX
439 1 1 -0.120000 1.066737 7.184474 3.778402 # CT HEX
440 1 1 -0.120000 2.554737 7.205474 4.172402 # CT HEX
441 1 2 0.060000 -1.532263 7.956474 4.130402 # HC HEX
442 1 2 0.060000 -1.391263 9.584474 3.510402 # HC HEX
443 1 2 0.060000 -1.093263 8.220474 2.460402 # HC HEX
444 1 2 0.060000 1.032737 9.247474 3.180402 # HC HEX
445 1 2 0.060000 0.594737 8.984474 4.851402 # HC HEX
446 1 2 0.060000 0.528737 6.549474 4.450402 # HC HEX
447 1 2 0.060000 0.967737 6.812474 2.780403 # HC HEX
448 1 2 0.060000 2.656737 7.584474 5.189402 # HC HEX
449 1 2 0.060000 3.103737 7.852474 3.487402 # HC HEX
450 1 1 -0.120000 3.126737 5.778474 4.097402 # CT HEX
451 1 2 0.060000 3.025737 5.399474 3.081402 # HC HEX
452 1 2 0.060000 2.578737 5.131474 4.782403 # HC HEX
453 1 1 -0.180000 4.613737 5.799474 4.491402 # CT HEX
454 1 2 0.060000 5.018737 4.789474 4.439402 # HC HEX
455 1 2 0.060000 5.162737 6.446474 3.807402 # HC HEX
456 1 2 0.060000 4.715737 6.178474 5.508402 # HC HEX
457 1 1 -0.120000 9.344337 -7.752526 -4.260297 # CT CYC
458 1 1 -0.120000 9.344337 -7.752526 -2.724298 # CT CYC
459 1 1 -0.120000 10.775336 -7.752526 -2.166297 # CT CYC
460 1 1 -0.120000 11.591336 -6.576527 -2.724298 # CT CYC
461 1 1 -0.120000 11.591336 -6.576527 -4.260297 # CT CYC
462 1 1 -0.120000 10.159336 -6.576527 -4.817297 # CT CYC
463 1 2 0.060000 8.297337 -7.701527 -4.639297 # HC CYC
464 1 2 0.060000 9.773336 -8.711527 -4.632298 # HC CYC
465 1 2 0.060000 8.790337 -8.642527 -2.345297 # HC CYC
466 1 2 0.060000 8.800337 -6.853527 -2.352297 # HC CYC
467 1 2 0.060000 11.278337 -8.711527 -2.431297 # HC CYC
468 1 2 0.060000 10.748337 -7.701527 -1.053297 # HC CYC
469 1 2 0.060000 12.638336 -6.627526 -2.345297 # HC CYC
470 1 2 0.060000 11.162336 -5.617527 -2.352297 # HC CYC
471 1 2 0.060000 12.135336 -7.474526 -4.632298 # HC CYC
472 1 2 0.060000 12.145336 -5.686526 -4.639297 # HC CYC
473 1 2 0.060000 10.186337 -6.627526 -5.931297 # HC CYC
474 1 2 0.060000 9.657336 -5.617527 -4.553297 # HC CYC
475 1 1 -0.180000 11.486337 -6.357527 -13.192297 # CT HEX
476 1 1 -0.120000 12.975336 -6.336526 -12.797297 # CT HEX
477 1 1 -0.120000 13.547337 -7.764526 -12.872297 # CT HEX
478 1 1 -0.120000 15.035336 -7.743526 -12.478298 # CT HEX
479 1 2 0.060000 10.948337 -6.992527 -12.520298 # HC HEX
480 1 2 0.060000 11.089336 -5.364527 -13.140297 # HC HEX
481 1 2 0.060000 11.387337 -6.728527 -14.190298 # HC HEX
482 1 2 0.060000 13.513336 -5.701527 -13.470297 # HC HEX
483 1 2 0.060000 13.075336 -5.964527 -11.799297 # HC HEX
484 1 2 0.060000 13.009336 -8.399527 -12.200297 # HC HEX
485 1 2 0.060000 13.448337 -8.136526 -13.870296 # HC HEX
486 1 2 0.060000 15.137337 -7.364527 -11.461298 # HC HEX
487 1 2 0.060000 15.584336 -7.096527 -13.163298 # HC HEX
488 1 1 -0.120000 15.607336 -9.170527 -12.553297 # CT HEX
489 1 2 0.060000 15.506336 -9.549526 -13.569298 # HC HEX
490 1 2 0.060000 15.059337 -9.817527 -11.868298 # HC HEX
491 1 1 -0.180000 17.094337 -9.149527 -12.159298 # CT HEX
492 1 2 0.060000 17.499336 -10.159527 -12.211298 # HC HEX
493 1 2 0.060000 17.643337 -8.502526 -12.843298 # HC HEX
494 1 2 0.060000 17.196337 -8.770527 -11.142298 # HC HEX
495 1 1 -0.120000 9.344337 -7.752526 12.390402 # CT CYC
496 1 1 -0.120000 9.344337 -7.752526 13.926402 # CT CYC
497 1 1 -0.120000 10.775336 -7.752526 14.484403 # CT CYC
498 1 1 -0.120000 11.591336 -6.576527 13.926402 # CT CYC
499 1 1 -0.120000 11.591336 -6.576527 12.390402 # CT CYC
500 1 1 -0.120000 10.159336 -6.576527 11.833403 # CT CYC
501 1 2 0.060000 8.297337 -7.701527 12.011402 # HC CYC
502 1 2 0.060000 9.773336 -8.711527 12.018402 # HC CYC
503 1 2 0.060000 8.790337 -8.642527 14.305403 # HC CYC
504 1 2 0.060000 8.800337 -6.853527 14.298403 # HC CYC
505 1 2 0.060000 11.278337 -8.711527 14.219402 # HC CYC
506 1 2 0.060000 10.748337 -7.701527 15.597403 # HC CYC
507 1 2 0.060000 12.638336 -6.627526 14.305403 # HC CYC
508 1 2 0.060000 11.162336 -5.617527 14.298403 # HC CYC
509 1 2 0.060000 12.135336 -7.474526 12.018402 # HC CYC
510 1 2 0.060000 12.145336 -5.686526 12.011402 # HC CYC
511 1 2 0.060000 10.186337 -6.627526 10.719402 # HC CYC
512 1 2 0.060000 9.657336 -5.617527 12.097403 # HC CYC
513 1 1 -0.180000 11.486337 -6.357527 3.458402 # CT HEX
514 1 1 -0.120000 12.975336 -6.336526 3.853403 # CT HEX
515 1 1 -0.120000 13.547337 -7.764526 3.778402 # CT HEX
516 1 1 -0.120000 15.035336 -7.743526 4.172402 # CT HEX
517 1 2 0.060000 10.948337 -6.992527 4.130402 # HC HEX
518 1 2 0.060000 11.089336 -5.364527 3.510402 # HC HEX
519 1 2 0.060000 11.387337 -6.728527 2.460402 # HC HEX
520 1 2 0.060000 13.513336 -5.701527 3.180402 # HC HEX
521 1 2 0.060000 13.075336 -5.964527 4.851402 # HC HEX
522 1 2 0.060000 13.009336 -8.399527 4.450402 # HC HEX
523 1 2 0.060000 13.448337 -8.136526 2.780403 # HC HEX
524 1 2 0.060000 15.137337 -7.364527 5.189402 # HC HEX
525 1 2 0.060000 15.584336 -7.096527 3.487402 # HC HEX
526 1 1 -0.120000 15.607336 -9.170527 4.097402 # CT HEX