 vasp.5.4.1 24Jun15 (build Dec 04 2015 16:58:54) complex

 executed on           IFC91_ompi date 2017.12.27  09:48:03
 running on   32 total cores
 distrk:  each k-point on   32 cores,    1 groups
 distr:  one band on NCORES_PER_BAND=   4 cores,    8 groups


--------------------------------------------------------------------------------------------------------


 INCAR:
 POTCAR:   PAW_PBE Cu 05Jan2001
 POTCAR:   PAW_PBE Rh 06Sep2000
 POTCAR:   PAW_PBE C 08Apr2002
 POTCAR:   PAW_PBE H 15Jun2001

 -----------------------------------------------------------------------------
|                                                                             |
|  ADVICE TO THIS USER RUNNING 'VASP/VAMP'   (HEAR YOUR MASTER'S VOICE ...):  |
|                                                                             |
|      You have switched on vdW-DFT.                                          |
|      This routine was written and supplied by Jiri Klimes.                  |
|      We recommed that you carefully read and cite the following             |
|      publication                                                            |
|      J. Klimes, D.R. Bowler, A. Michelides                                  |
|        J. Phys.: Cond Matt. 22 022201 (2010)                                |
|      J. Klimes, D.R. Bowler, A. Michelides                                  |
|        Phys. Rev. B. 83, 195131 (2011)                                      |
|      and references therein.                                                |
|                                                                             |
 -----------------------------------------------------------------------------

 POTCAR:   PAW_PBE Cu 05Jan2001
  local pseudopotential read in
  partial core-charges read in
  atomic valenz-charges read in
  non local Contribution for L=           2  read in
    real space projection operators read in
  non local Contribution for L=           2  read in
    real space projection operators read in
  non local Contribution for L=           0  read in
    real space projection operators read in
  non local Contribution for L=           0  read in
    real space projection operators read in
  non local Contribution for L=           1  read in
    real space projection operators read in
  non local Contribution for L=           1  read in
    real space projection operators read in
    PAW grid and wavefunctions read in

   number of l-projection  operators is LMAX  =           6
   number of lm-projection operators is LMMAX =          18

 POTCAR:   PAW_PBE Rh 06Sep2000
  local pseudopotential read in
  partial core-charges read in
  atomic valenz-charges read in
  non local Contribution for L=           2  read in
    real space projection operators read in
  non local Contribution for L=           2  read in
    real space projection operators read in
  non local Contribution for L=           0  read in
    real space projection operators read in
  non local Contribution for L=           0  read in
    real space projection operators read in
  non local Contribution for L=           1  read in
    real space projection operators read in
  non local Contribution for L=           1  read in
    real space projection operators read in
    PAW grid and wavefunctions read in

   number of l-projection  operators is LMAX  =           6
   number of lm-projection operators is LMMAX =          18

 POTCAR:   PAW_PBE C 08Apr2002
  local pseudopotential read in
  atomic valenz-charges read in
  non local Contribution for L=           0  read in
    real space projection operators read in
  non local Contribution for L=           0  read in
    real space projection operators read in
  non local Contribution for L=           1  read in
    real space projection operators read in
  non local Contribution for L=           1  read in
    real space projection operators read in
    PAW grid and wavefunctions read in

   number of l-projection  operators is LMAX  =           4
   number of lm-projection operators is LMMAX =           8

 POTCAR:   PAW_PBE H 15Jun2001
  local pseudopotential read in
  atomic valenz-charges read in
  non local Contribution for L=           0  read in
    real space projection operators read in
  non local Contribution for L=           0  read in
    real space projection operators read in
  non local Contribution for L=           1  read in
    real space projection operators read in
    PAW grid and wavefunctions read in

   number of l-projection  operators is LMAX  =           3
   number of lm-projection operators is LMMAX =           5

 Optimization of the real space projectors (new method)

 maximal supplied QI-value         = 16.25
 optimisation between [QCUT,QGAM] = [ 10.24, 20.48] = [ 29.35,117.42] Ry
 Optimized for a Real-space Cutoff    1.55 Angstroem

   l    n(q)    QCUT    max X(q) W(low)/X(q) W(high)/X(q)  e(spline)
   2      9    10.239     4.977    0.78E-05    0.33E-04    0.53E-07
   2      9    10.239    13.467    0.10E-03    0.30E-03    0.20E-06
   0     10    10.239    13.303    0.19E-04    0.19E-05    0.69E-08
   0     10    10.239    44.613    0.65E-04    0.24E-05    0.85E-07
   1      9    10.239     5.276    0.25E-04    0.19E-04    0.22E-07
   1      9    10.239     7.322    0.84E-04    0.97E-04    0.11E-06
 Optimization of the real space projectors (new method)

 maximal supplied QI-value         = 15.12
 optimisation between [QCUT,QGAM] = [ 10.13, 20.41] = [ 28.73,116.64] Ry
 Optimized for a Real-space Cutoff    1.70 Angstroem

   l    n(q)    QCUT    max X(q) W(low)/X(q) W(high)/X(q)  e(spline)
   2      9    10.129     3.971    0.16E-04    0.22E-05    0.64E-07
   2      9    10.129    27.544    0.10E-03    0.24E-04    0.29E-06
   0     10    10.129    20.781    0.20E-04    0.19E-06    0.11E-07
   0     10    10.129    69.103    0.45E-04    0.21E-04    0.91E-07
   1     10    10.129     7.864    0.65E-05    0.54E-05    0.31E-07
   1     10    10.129    10.811    0.30E-04    0.39E-05    0.12E-06
 Optimization of the real space projectors (new method)

 maximal supplied QI-value         = 25.13
 optimisation between [QCUT,QGAM] = [ 10.05, 20.36] = [ 28.30,116.06] Ry
 Optimized for a Real-space Cutoff    1.51 Angstroem

   l    n(q)    QCUT    max X(q) W(low)/X(q) W(high)/X(q)  e(spline)
   0      9    10.053     5.582    0.29E-04    0.95E-05    0.10E-06
   0      9    10.053    69.432    0.19E-03    0.21E-03    0.38E-06
   1      9    10.053     2.780    0.26E-04    0.49E-04    0.22E-06
   1      9    10.053     4.549    0.59E-04    0.62E-04    0.43E-06
 Optimization of the real space projectors (new method)

 maximal supplied QI-value         = 34.20
 optimisation between [QCUT,QGAM] = [  9.92, 20.18] = [ 27.55,114.04] Ry
 Optimized for a Real-space Cutoff    1.34 Angstroem

   l    n(q)    QCUT    max X(q) W(low)/X(q) W(high)/X(q)  e(spline)
   0      8     9.919     4.436    0.31E-04    0.59E-04    0.66E-07
   0      8     9.919    16.131    0.16E-03    0.20E-03    0.35E-06
   1      8     9.919     4.654    0.19E-03    0.46E-03    0.40E-06

 -----------------------------------------------------------------------------
|                                                                             |
|  ADVICE TO THIS USER RUNNING 'VASP/VAMP'   (HEAR YOUR MASTER'S VOICE ...):  |
|                                                                             |
|      You enforced a specific xc-type in the INCAR file,                     |
|      a different type was found on the POTCAR file                          |
|          I HOPE YOU KNOW, WHAT YOU ARE  DOING                               |
|                                                                             |
 -----------------------------------------------------------------------------

 PAW_PBE Cu 05Jan2001                   :
 energy of atom  1       EATOM=-1390.9800
 kinetic energy error for atom=    0.0117 (will be added to EATOM!!)
 PAW_PBE Rh 06Sep2000                   :
 energy of atom  2       EATOM= -616.5493
 kinetic energy error for atom=    0.0043 (will be added to EATOM!!)
 PAW_PBE C 08Apr2002                    :
 energy of atom  3       EATOM= -147.1560
 kinetic energy error for atom=    0.0288 (will be added to EATOM!!)
 PAW_PBE H 15Jun2001                    :
 energy of atom  4       EATOM=  -12.4884
 kinetic energy error for atom=    0.0098 (will be added to EATOM!!)


 POSCAR: POSCAR file for Cu_3x3x5.xsd | Created o
  positions in direct lattice
  velocities in cartesian coordinates
 exchange correlation table for  LEXCH =       43
   RHO(1)=    0.500       N(1)  =     2000
   RHO(2)=  100.500       N(2)  =     4000

 VTST: version 3.1, (03/28/14)

 CHAIN: initializing optimizer

 OPT: Using VASP Conjugate-Gradient optimizer
 CHAIN: Read ICHAIN            0

 POSCAR: POSCAR file for Cu_3x3x5.xsd | Created o
  positions in direct lattice
  velocities in cartesian coordinates



--------------------------------------------------------------------------------------------------------


 ion  position               nearest neighbor table
   1  0.222  0.111  0.000-   2 2.55   7 2.55   5 2.55   9 2.55   4 2.55   3 2.55  10 2.55  14 2.55
                            13 2.55
   2  0.222  0.444  0.000-   1 2.55   8 2.55   7 2.55   3 2.55   5 2.55   6 2.55  11 2.55  14 2.55
                            15 2.55
   3  0.222  0.778  0.000-   9 2.55   8 2.55   6 2.55   1 2.55   2 2.55   4 2.55  12 2.55  13 2.55
                            15 2.55
   4  0.556  0.111  0.000-   5 2.55   8 2.55   6 2.55   7 2.55   1 2.55   3 2.55  13 2.55  16 2.55
                            17 2.55
   5  0.556  0.444  0.000-   4 2.55   1 2.55  17 2.55   6 2.55   8 2.55   2 2.55   9 2.55  14 2.55
                            18 2.55
   6  0.556  0.778  0.000-   3 2.55   4 2.55   5 2.55   9 2.55   7 2.55   2 2.55  15 2.55  16 2.55
                            18 2.55
   7  0.889  0.111  0.000-   1 2.55   8 2.55   2 2.55   4 2.55   9 2.55   6 2.55  10 2.55  11 2.55
                            16 2.55
   8  0.889  0.444  0.000-   2 2.55   7 2.55   4 2.55   3 2.55  11 2.55   9 2.55   5 2.55  12 2.55
                            17 2.55
   9  0.889  0.778  0.000-   3 2.55   1 2.55   6 2.55   7 2.55   8 2.55   5 2.55  10 2.55  12 2.55
                            18 2.55
  10  0.000  0.000  0.114-  21 2.54  38 2.55  44 2.55  16 2.55  11 2.55  12 2.55  13 2.55  18 2.55
                            14 2.55   1 2.55   7 2.55   9 2.55
  11  0.000  0.333  0.114-  21 2.54  30 2.55  12 2.55  15 2.55   8 2.55  17 2.55  14 2.55  10 2.55
                            16 2.55   7 2.55   2 2.55  27 2.55
  12  0.000  0.667  0.114-  35 2.55  11 2.55  17 2.55  10 2.55  18 2.55  15 2.55  13 2.55   8 2.55
                             9 2.55   3 2.55  30 2.55  38 2.56
  13  0.333  0.000  0.114-  24 2.54  38 2.55  16 2.55  17 2.55  14 2.55  15 2.55  10 2.55  12 2.55
                             3 2.55   4 2.55   1 2.55  41 2.56
  14  0.333  0.333  0.114-  21 2.54  24 2.55  32 2.55  17 2.55  15 2.55  18 2.55  11 2.55  13 2.55
                            10 2.55   1 2.55   2 2.55   5 2.55
  15  0.333  0.667  0.114-  32 2.54  30 2.55  14 2.55  18 2.55  16 2.55  11 2.55  13 2.55  12 2.55
                             2 2.55   6 2.55   3 2.55  41 2.56
  16  0.667  0.000  0.114-  13 2.55  15 2.55  10 2.55  17 2.55  18 2.55  11 2.55   4 2.55   6 2.55
                             7 2.55  41 2.55  44 2.56  27 2.56
  17  0.667  0.333  0.114-  24 2.54  35 2.55  14 2.55  18 2.55  12 2.55  13 2.55   5 2.55  16 2.55
                            11 2.55   4 2.55   8 2.55  27 2.56
  18  0.667  0.667  0.114-  32 2.54  35 2.55  15 2.55  17 2.55  14 2.55  16 2.55  12 2.55  10 2.55
                             5 2.55   6 2.55   9 2.55  44 2.56
  19  0.999  0.998  0.454-  42 2.50  36 2.54  43 2.54  25 2.54  26 2.54  20 2.57  22 2.57  28 2.58
                            45 2.58
  20  0.224  0.112  0.340-  38 2.53  24 2.54  21 2.55  23 2.55  26 2.55  37 2.55  43 2.55  29 2.55
                            31 2.55  19 2.57  22 2.57  45 2.60
  21  0.111  0.222  0.227-  11 2.54  10 2.54  14 2.54  20 2.55  29 2.55  38 2.55  44 2.55  26 2.55
                            27 2.55  30 2.55  24 2.56  32 2.56
  22  0.335  0.998  0.454-  39 2.50  36 2.54  37 2.54  25 2.54  23 2.54  20 2.57  19 2.57  45 2.58
                            33 2.58
  23  0.557  0.112  0.341-  33 2.54  22 2.54  27 2.54  25 2.54  20 2.55  31 2.55  41 2.55  37 2.55
                            24 2.55  34 2.55  40 2.56  26 2.56
  24  0.446  0.222  0.227-  17 2.54  20 2.54  13 2.54  31 2.54  41 2.55  38 2.55  27 2.55  35 2.55
                            14 2.55  23 2.55  21 2.56  32 2.56
  25  0.669  0.001  0.454-  42 2.54  33 2.54  19 2.54  39 2.54  22 2.54  28 2.54  26 2.54  23 2.54
                            40 2.55
  26  0.891  0.112  0.341-  25 2.54  19 2.54  28 2.55  27 2.55  21 2.55  29 2.55  44 2.55  20 2.55
                            34 2.55  43 2.55  40 2.56  23 2.56
  27  0.779  0.223  0.228-  34 2.54  23 2.54  24 2.55  26 2.55  21 2.55  35 2.55  30 2.55  11 2.55
                            41 2.56  17 2.56  44 2.56  16 2.56
  28  0.999  0.335  0.454-  33 2.50  34 2.54  36 2.54  25 2.54  26 2.55  29 2.57  39 2.57  19 2.58
                            45 2.58
  29  0.224  0.445  0.340-  30 2.53  32 2.54  21 2.55  26 2.55  40 2.55  34 2.55  37 2.55  20 2.55
                            31 2.55  28 2.57  39 2.57  45 2.60
  30  0.112  0.556  0.227-  29 2.53  34 2.54  15 2.55  32 2.55  21 2.55  37 2.55  27 2.55  41 2.55
                            11 2.55  12 2.55  35 2.56  38 2.56
  31  0.557  0.446  0.340-  35 2.53  32 2.54  24 2.54  23 2.55  40 2.55  34 2.55  43 2.55  20 2.55
                            29 2.55  42 2.57  33 2.57  45 2.60
  32  0.446  0.557  0.227-  18 2.54  29 2.54  15 2.54  31 2.54  41 2.55  30 2.55  44 2.55  35 2.55
                            14 2.55  40 2.55  21 2.56  24 2.56
  33  0.672  0.335  0.454-  28 2.50  34 2.53  36 2.54  25 2.54  23 2.54  31 2.57  45 2.57  42 2.58
                            22 2.58
  34  0.890  0.445  0.340-  33 2.53  27 2.54  28 2.54  30 2.54  35 2.55  36 2.55  31 2.55  26 2.55
                            23 2.55  29 2.55  43 2.56  37 2.56
  35  0.778  0.556  0.227-  31 2.53  34 2.55  43 2.55  24 2.55  32 2.55  18 2.55  12 2.55  27 2.55
                            17 2.55  44 2.55  30 2.56  38 2.56
  36  0.002  0.668  0.453-  39 2.54  42 2.54  22 2.54  19 2.54  33 2.54  28 2.54  37 2.55  43 2.55
                            34 2.55
  37  0.224  0.779  0.340-  41 2.53  39 2.54  22 2.54  36 2.55  38 2.55  30 2.55  23 2.55  40 2.55
                            20 2.55  29 2.55  43 2.56  34 2.56
  38  0.112  0.890  0.227-  20 2.53  43 2.54  13 2.55  24 2.55  37 2.55  21 2.55  44 2.55  10 2.55
                            41 2.55  12 2.56  35 2.56  30 2.56
  39  0.335  0.671  0.454-  22 2.50  36 2.54  37 2.54  25 2.54  40 2.54  29 2.57  28 2.57  45 2.58
                            42 2.58
  40  0.557  0.778  0.341-  42 2.54  39 2.54  44 2.54  25 2.55  41 2.55  29 2.55  31 2.55  37 2.55
                            32 2.55  43 2.55  23 2.56  26 2.56
  41  0.445  0.889  0.228-  37 2.53  24 2.55  32 2.55  40 2.55  23 2.55  38 2.55  30 2.55  16 2.55
                            13 2.56  27 2.56  44 2.56  15 2.56
  42  0.672  0.671  0.454-  19 2.50  43 2.53  36 2.54  25 2.54  40 2.54  31 2.57  45 2.57  33 2.58
                            39 2.58
  43  0.890  0.779  0.340-  42 2.53  44 2.53  19 2.54  38 2.54  35 2.55  36 2.55  26 2.55  31 2.55
                            40 2.55  20 2.55  34 2.56  37 2.56
  44  0.779  0.889  0.228-  43 2.53  40 2.54  32 2.55  21 2.55  26 2.55  38 2.55  35 2.55  10 2.55
                            41 2.56  27 2.56  18 2.56  16 2.56
  45  0.336  0.335  0.456-  48 2.07  42 2.57  33 2.57  39 2.58  22 2.58  28 2.58  19 2.58  31 2.60
                            29 2.60  20 2.60
  46  0.327  0.332  0.617-  50 1.10  47 1.10  49 1.10  48 1.13
  47  0.319  0.457  0.643-  46 1.10
  48  0.417  0.393  0.565-  46 1.13  45 2.07
  49  0.412  0.281  0.651-  46 1.10
  50  0.175  0.206  0.606-  46 1.10

  LATTYP: Found a hexagonal cell.
 ALAT       =     7.6549965918
 C/A-ratio  =     2.3949984178

  Lattice vectors:

 A1 = (   5.4129000000,  -5.4129000000,  -0.0000000000)
 A2 = (   0.0000000000,   5.4129000000,  -5.4129000000)
 A3 = (  10.5849693586,  10.5849693586,  10.5849693586)


Analysis of symmetry for initial positions (statically):
=====================================================================
 Subroutine PRICEL returns:
 Original cell was already a primitive cell.


 Routine SETGRP: Setting up the symmetry group for a
 hexagonal supercell.


 Subroutine GETGRP returns: Found  1 space group operations
 (whereof  1 operations were pure point group operations)
 out of a pool of 24 trial point group operations.


The static configuration has the point symmetry C_1 .


Analysis of symmetry for dynamics (positions and initial velocities):
=====================================================================
 Subroutine PRICEL returns:
 Original cell was already a primitive cell.


 Routine SETGRP: Setting up the symmetry group for a
 hexagonal supercell.


 Subroutine GETGRP returns: Found  1 space group operations
 (whereof  1 operations were pure point group operations)
 out of a pool of 24 trial point group operations.


The dynamic configuration has the point symmetry C_1 .


Analysis of constrained symmetry for selective dynamics:
=====================================================================
 Subroutine PRICEL returns:
 Original cell was already a primitive cell.


 Routine SETGRP: Setting up the symmetry group for a
 hexagonal supercell.


 Subroutine GETGRP returns: Found  1 space group operations
 (whereof  1 operations were pure point group operations)
 out of a pool of 24 trial point group operations.


The constrained configuration has the point symmetry C_1 .


 KPOINTS: K-Point Grid Created by Matt Darby on 30

Automatic generation of k-mesh.
Space group operators:
 irot       det(A)        alpha          n_x          n_y          n_z        tau_x        tau_y        tau_z
    1     1.000000     0.000000     1.000000     0.000000     0.000000     0.000000     0.000000     0.000000

 Subroutine IBZKPT returns following result:
 ===========================================

 Found     85 irreducible k-points:

 Following reciprocal coordinates:
            Coordinates               Weight
  0.000000  0.000000  0.000000      1.000000
  0.076923  0.000000  0.000000      2.000000
  0.153846  0.000000  0.000000      2.000000
  0.230769  0.000000  0.000000      2.000000
  0.307692  0.000000  0.000000      2.000000
  0.384615  0.000000  0.000000      2.000000
  0.461538  0.000000  0.000000      2.000000
  0.000000  0.076923  0.000000      2.000000
  0.076923  0.076923  0.000000      2.000000
  0.153846  0.076923  0.000000      2.000000
  0.230769  0.076923 -0.000000      2.000000
  0.307692  0.076923  0.000000      2.000000
  0.384615  0.076923 -0.000000      2.000000
  0.461538  0.076923 -0.000000      2.000000
 -0.461538  0.076923 -0.000000      2.000000
 -0.384615  0.076923 -0.000000      2.000000
 -0.307692  0.076923 -0.000000      2.000000
 -0.230769  0.076923  0.000000      2.000000
 -0.153846  0.076923 -0.000000      2.000000
 -0.076923  0.076923  0.000000      2.000000
 -0.000000  0.153846 -0.000000      2.000000
  0.076923  0.153846  0.000000      2.000000
  0.153846  0.153846  0.000000      2.000000
  0.230769  0.153846  0.000000      2.000000
  0.307692  0.153846  0.000000      2.000000
  0.384615  0.153846  0.000000      2.000000
  0.461538  0.153846  0.000000      2.000000
 -0.461538  0.153846  0.000000      2.000000
 -0.384615  0.153846  0.000000      2.000000
 -0.307692  0.153846 -0.000000      2.000000
 -0.230769  0.153846  0.000000      2.000000
 -0.153846  0.153846 -0.000000      2.000000
 -0.076923  0.153846 -0.000000      2.000000
 -0.000000  0.230769  0.000000      2.000000
  0.076923  0.230769 -0.000000      2.000000
  0.153846  0.230769  0.000000      2.000000
  0.230769  0.230769  0.000000      2.000000
  0.307692  0.230769  0.000000      2.000000
  0.384615  0.230769 -0.000000      2.000000
  0.461538  0.230769  0.000000      2.000000
 -0.461538  0.230769  0.000000      2.000000
 -0.384615  0.230769 -0.000000      2.000000
 -0.307692  0.230769  0.000000      2.000000
 -0.230769  0.230769 -0.000000      2.000000
 -0.153846  0.230769  0.000000      2.000000
 -0.076923  0.230769  0.000000      2.000000
 -0.000000  0.307692  0.000000      2.000000
  0.076923  0.307692  0.000000      2.000000
  0.153846  0.307692  0.000000      2.000000
  0.230769  0.307692  0.000000      2.000000
  0.307692  0.307692  0.000000      2.000000
  0.384615  0.307692  0.000000      2.000000
  0.461538  0.307692  0.000000      2.000000
 -0.461538  0.307692  0.000000      2.000000
 -0.384615  0.307692  0.000000      2.000000
 -0.307692  0.307692  0.000000      2.000000
 -0.230769  0.307692  0.000000      2.000000
 -0.153846  0.307692  0.000000      2.000000
 -0.076923  0.307692  0.000000      2.000000
 -0.000000  0.384615  0.000000      2.000000
  0.076923  0.384615 -0.000000      2.000000
  0.153846  0.384615  0.000000      2.000000
  0.230769  0.384615 -0.000000      2.000000
  0.307692  0.384615  0.000000      2.000000
  0.384615  0.384615  0.000000      2.000000
  0.461538  0.384615  0.000000      2.000000
 -0.461538  0.384615  0.000000      2.000000
 -0.384615  0.384615  0.000000      2.000000
 -0.307692  0.384615  0.000000      2.000000
 -0.230769  0.384615 -0.000000      2.000000
 -0.153846  0.384615  0.000000      2.000000
 -0.076923  0.384615 -0.000000      2.000000
 -0.000000  0.461538  0.000000      2.000000
  0.076923  0.461538  0.000000      2.000000
  0.153846  0.461538  0.000000      2.000000
  0.230769  0.461538  0.000000      2.000000
  0.307692  0.461538  0.000000      2.000000
  0.384615  0.461538  0.000000      2.000000
  0.461538  0.461538  0.000000      2.000000
 -0.461538  0.461538 -0.000000      2.000000
 -0.384615  0.461538  0.000000      2.000000
 -0.307692  0.461538  0.000000      2.000000
 -0.230769  0.461538  0.000000      2.000000
 -0.153846  0.461538 -0.000000      2.000000
 -0.076923  0.461538  0.000000      2.000000

 Following cartesian coordinates:
            Coordinates               Weight
  0.000000  0.000000  0.000000      1.000000
  0.009474 -0.004737 -0.004737      2.000000
  0.018948 -0.009474 -0.009474      2.000000
  0.028422 -0.014211 -0.014211      2.000000
  0.037896 -0.018948 -0.018948      2.000000
  0.047370 -0.023685 -0.023685      2.000000
  0.056844 -0.028422 -0.028422      2.000000
  0.004737  0.004737 -0.009474      2.000000
  0.014211  0.000000 -0.014211      2.000000
  0.023685 -0.004737 -0.018948      2.000000
  0.033159 -0.009474 -0.023685      2.000000
  0.042633 -0.014211 -0.028422      2.000000
  0.052107 -0.018948 -0.033159      2.000000
  0.061581 -0.023685 -0.037896      2.000000
 -0.052107  0.033159  0.018948      2.000000
 -0.042633  0.028422  0.014211      2.000000
 -0.033159  0.023685  0.009474      2.000000
 -0.023685  0.018948  0.004737      2.000000
 -0.014211  0.014211  0.000000      2.000000
 -0.004737  0.009474 -0.004737      2.000000
  0.009474  0.009474 -0.018948      2.000000
  0.018948  0.004737 -0.023685      2.000000
  0.028422  0.000000 -0.028422      2.000000
  0.037896 -0.004737 -0.033159      2.000000
  0.047370 -0.009474 -0.037896      2.000000
  0.056844 -0.014211 -0.042633      2.000000
  0.066318 -0.018948 -0.047370      2.000000
 -0.047370  0.037896  0.009474      2.000000
 -0.037896  0.033159  0.004737      2.000000
 -0.028422  0.028422 -0.000000      2.000000
 -0.018948  0.023685 -0.004737      2.000000
 -0.009474  0.018948 -0.009474      2.000000
  0.000000  0.014211 -0.014211      2.000000
  0.014211  0.014211 -0.028422      2.000000
  0.023685  0.009474 -0.033159      2.000000
  0.033159  0.004737 -0.037896      2.000000
  0.042633  0.000000 -0.042633      2.000000
  0.052107 -0.004737 -0.047370      2.000000
  0.061581 -0.009474 -0.052107      2.000000
  0.071055 -0.014211 -0.056844      2.000000
 -0.042633  0.042633  0.000000      2.000000
 -0.033159  0.037896 -0.004737      2.000000
 -0.023685  0.033159 -0.009474      2.000000
 -0.014211  0.028422 -0.014211      2.000000
 -0.004737  0.023685 -0.018948      2.000000
  0.004737  0.018948 -0.023685      2.000000
  0.018948  0.018948 -0.037896      2.000000
  0.028422  0.014211 -0.042633      2.000000
  0.037896  0.009474 -0.047370      2.000000
  0.047370  0.004737 -0.052107      2.000000
  0.056844  0.000000 -0.056844      2.000000
  0.066318 -0.004737 -0.061581      2.000000
  0.075792 -0.009474 -0.066318      2.000000
 -0.037896  0.047370 -0.009474      2.000000
 -0.028422  0.042633 -0.014211      2.000000
 -0.018948  0.037896 -0.018948      2.000000
 -0.009474  0.033159 -0.023685      2.000000
 -0.000000  0.028422 -0.028422      2.000000
  0.009474  0.023685 -0.033159      2.000000
  0.023685  0.023685 -0.047370      2.000000
  0.033159  0.018948 -0.052107      2.000000
  0.042633  0.014211 -0.056844      2.000000
  0.052107  0.009474 -0.061581      2.000000
  0.061581  0.004737 -0.066318      2.000000
  0.071055  0.000000 -0.071055      2.000000
  0.080529 -0.004737 -0.075792      2.000000
 -0.033159  0.052107 -0.018948      2.000000
 -0.023685  0.047370 -0.023685      2.000000
 -0.014211  0.042633 -0.028422      2.000000
 -0.004737  0.037896 -0.033159      2.000000
  0.004737  0.033159 -0.037896      2.000000
  0.014211  0.028422 -0.042633      2.000000
  0.028422  0.028422 -0.056844      2.000000
  0.037896  0.023685 -0.061581      2.000000
  0.047370  0.018948 -0.066318      2.000000
  0.056844  0.014211 -0.071055      2.000000
  0.066318  0.009474 -0.075792      2.000000
  0.075792  0.004737 -0.080529      2.000000
  0.085266  0.000000 -0.085266      2.000000
 -0.028422  0.056844 -0.028422      2.000000
 -0.018948  0.052107 -0.033159      2.000000
 -0.009474  0.047370 -0.037896      2.000000
  0.000000  0.042633 -0.042633      2.000000
  0.009474  0.037896 -0.047370      2.000000
  0.018948  0.033159 -0.052107      2.000000



--------------------------------------------------------------------------------------------------------




 Dimension of arrays:
   k-points           NKPTS =     85   k-points in BZ     NKDIM =     85   number of bands    NBANDS=    304
   number of dos      NEDOS =    301   number of ions     NIONS =     50
   non local maximal  LDIM  =      6   non local SUM 2l+1 LMDIM =     18
   total plane-waves  NPLWV = 300000
   max r-space proj   IRMAX =   6660   max aug-charges    IRDMAX=  18523
   dimension x,y,z NGX =    50 NGY =   50 NGZ =  120
   dimension x,y,z NGXF=   100 NGYF=  100 NGZF=  240
   support grid    NGXF=   100 NGYF=  100 NGZF=  240
   ions per type =              44   1   1   4
 NGX,Y,Z   is equivalent  to a cutoff of  10.86, 10.86, 10.88 a.u.
 NGXF,Y,Z  is equivalent  to a cutoff of  21.72, 21.72, 21.76 a.u.


 I would recommend the setting:
   dimension x,y,z NGX =    50 NGY =   50 NGZ =  120
 SYSTEM =  unknown system
 POSCAR =  POSCAR file for Cu_3x3x5.xsd | Created o

 Startparameter for this run:
   NWRITE =      1    write-flag & timer
   PREC   = accura    normal or accurate (medium, high low for compatibility)
   ISTART =      0    job   : 0-new  1-cont  2-samecut
   ICHARG =      2    charge: 1-file 2-atom 10-const
   ISPIN  =      1    spin polarized calculation?
   LNONCOLLINEAR =      F non collinear calculations
   LSORBIT =      F    spin-orbit coupling
   INIWAV =      1    electr: 0-lowe 1-rand  2-diag
   LASPH  =      F    aspherical Exc in radial PAW
   METAGGA=      F    non-selfconsistent MetaGGA calc.

 Electronic Relaxation 1
   ENCUT  =  400.0 eV  29.40 Ry    5.42 a.u.  12.48 12.48 29.90*2*pi/ulx,y,z
   ENINI  =  400.0     initial cutoff
   ENAUG  =  644.9 eV  augmentation charge cutoff
   NELM   =    100;   NELMIN=  2; NELMDL=-10     # of ELM steps
   EDIFF  = 0.1E-06   stopping-criterion for ELM
   LREAL  =      T    real-space projection
   NLSPLINE    = F    spline interpolate recip. space projectors
   LCOMPAT=      F    compatible to vasp.4.4
   GGA_COMPAT  = T    GGA compatible to vasp.4.4-vasp.4.6
   LMAXPAW     = -100 max onsite density
   LMAXMIX     =    2 max onsite mixed and CHGCAR
   VOSKOWN=      1    Vosko Wilk Nusair interpolation
   ROPT   =   -0.00020  -0.00020  -0.00020  -0.00020
 Ionic relaxation
   EDIFFG = -.1E-01   stopping-criterion for IOM
   NSW    =    200    number of steps for IOM
   NBLOCK =      1;   KBLOCK =    200    inner block; outer block
   IBRION =      2    ionic relax: 0-MD 1-quasi-New 2-CG
   NFREE  =     10    steps in history (QN), initial steepest desc. (CG)
   ISIF   =      2    stress and relaxation
   IWAVPR =     11    prediction:  0-non 1-charg 2-wave 3-comb
   ISYM   =      2    0-nonsym 1-usesym 2-fastsym
   LCORR  =      T    Harris-Foulkes like correction to forces

   POTIM  = 0.1250    time-step for ionic-motion
   TEIN   =    0.0    initial temperature
   TEBEG  =    0.0;   TEEND  =   0.0 temperature during run
   SMASS  =  -3.00    Nose mass-parameter (am)
   estimated Nose-frequenzy (Omega)   =  0.10E-29 period in steps =****** mass=  -0.134E-26a.u.
   SCALEE = 1.0000    scale energy and forces
   NPACO  =    256;   APACO  = 16.0  distance and # of slots for P.C.
   PSTRESS=    0.0 pullay stress

  Mass of Ions in am
   POMASS =  63.55102.91 12.01  1.00
  Ionic Valenz
   ZVAL   =  11.00  9.00  4.00  1.00
  Atomic Wigner-Seitz radii
   RWIGS  =  -1.00 -1.00 -1.00 -1.00
  virtual crystal weights
   VCA    =   1.00  1.00  1.00  1.00
   NELECT =     501.0000    total number of electrons
   NUPDOWN=      -1.0000    fix difference up-down

 DOS related values:
   EMIN   =  10.00;   EMAX   =-10.00  energy-range for DOS
   EFERMI =   0.00
   ISMEAR =     1;   SIGMA  =   0.10  broadening in eV -4-tet -1-fermi 0-gaus

 Electronic relaxation 2 (details)
   IALGO  =     68    algorithm
   LDIAG  =      T    sub-space diagonalisation (order eigenvalues)
   LSUBROT=      F    optimize rotation matrix (better conditioning)
   TURBO    =      0    0=normal 1=particle mesh
   IRESTART =      0    0=no restart 2=restart with 2 vectors
   NREBOOT  =      0    no. of reboots
   NMIN     =      0    reboot dimension
   EREF     =   0.00    reference energy to select bands
   IMIX   =      4    mixing-type and parameters
     AMIX     =   0.40;   BMIX     =  1.00
     AMIX_MAG =   1.60;   BMIX_MAG =  1.00
     AMIN     =   0.10
     WC   =   100.;   INIMIX=   1;  MIXPRE=   1;  MAXMIX= -45

 Intra band minimization:
   WEIMIN = 0.0010     energy-eigenvalue tresh-hold
   EBREAK =  0.82E-10  absolut break condition
   DEPER  =   0.30     relativ break condition

   TIME   =   0.40     timestep for ELM

  volume/ion in A,a.u.               =      18.61       125.57
  Fermi-wavevector in a.u.,A,eV,Ry     =   1.331876  2.516881 24.135288  1.773894
  Thomas-Fermi vector in A             =   2.460854

 Write flags
   LWAVE  =      F    write WAVECAR
   LCHARG =      F    write CHGCAR
   LVTOT  =      F    write LOCPOT, total local potential
   LVHAR  =      F    write LOCPOT, Hartree potential only
   LELF   =      F    write electronic localiz. function (ELF)
   LORBIT =      0    0 simple, 1 ext, 2 COOP (PROOUT)


 Dipole corrections
   LMONO  =      F    monopole corrections only (constant potential shift)
   LDIPOL =      T    correct potential (dipole corrections)
   IDIPOL =      3    1-x, 2-y, 3-z, 4-all directions
   EPSILON=  1.0000000 bulk dielectric constant

 Exchange correlation treatment:
   GGA     =    MK    GGA type
   LEXCH   =    43    internal setting for exchange type
   VOSKOWN=      1    Vosko Wilk Nusair interpolation
   LHFCALC =     F    Hartree Fock is set to
   LHFONE  =     F    Hartree Fock one center treatment
   AEXX    =    0.0000 exact exchange contribution

 vdW DFT:
   LUSE_VDW   =     T    switch on vdW DFT
   Zab_VDW    =-.8491    correlation parameter
   PARAM1     =0.1234
   PARAM2     =1.0000
   PARAM3     =0.0000

 Linear response parameters
   LEPSILON=     F    determine dielectric tensor
   LRPA    =     F    only Hartree local field effects (RPA)
   LNABLA  =     F    use nabla operator in PAW spheres
   LVEL    =     F    velocity operator in full k-point grid
   LINTERFAST=   F  fast interpolation
   KINTER  =     0    interpolate to denser k-point grid
   CSHIFT  =0.1000    complex shift for real part using Kramers Kronig
   OMEGAMAX=  -1.0    maximum frequency
   DEG_THRESHOLD= 0.2000000E-02 threshold for treating states as degnerate
   RTIME   =    0.100 relaxation time in fs

 Orbital magnetization related:
   ORBITALMAG=     F  switch on orbital magnetization
   LCHIMAG   =     F  perturbation theory with respect to B field
   DQ        =  0.001000  dq finite difference perturbation B field



--------------------------------------------------------------------------------------------------------


 conjugate gradient relaxation of ions
   using selective dynamics as specified on POSCAR
 charge density and potential will be updated during run
 non-spin polarized calculation
 RMM-DIIS sequential band-by-band and
  variant of blocked Davidson during initial phase
 perform sub-space diagonalisation
    before iterative eigenvector-optimisation
 modified Broyden-mixing scheme, WC =      100.0
 initial mixing is a Kerker type mixing with AMIX =  0.4000 and BMIX =      1.0000
 Hartree-type preconditioning will be used
 using additional bands           53
 real space projection scheme for non local part
 use partial core corrections
 calculate Harris-corrections to forces
   (improved forces if not selfconsistent)
 use gradient corrections
 use of overlap-Matrix (Vanderbilt PP)
 Methfessel and Paxton  Order N= 1 SIGMA  =   0.10


--------------------------------------------------------------------------------------------------------


  energy-cutoff  :      400.00
  volume of cell :      930.40
      direct lattice vectors                 reciprocal lattice vectors
     5.412900000 -5.412900000 -0.000000000     0.123162568 -0.061581284 -0.061581284
     0.000000000  5.412900000 -5.412900000     0.061581284  0.061581284 -0.123162568
    10.584969359 10.584969359 10.584969359     0.031491195  0.031491195  0.031491195

  length of vectors
     7.654996592  7.654996592 18.333704726     0.150842724  0.150842724  0.054544350



 k-points in units of 2pi/SCALE and weight: K-Point Grid Created by Matt Darby on 30
   0.00000000  0.00000000  0.00000000       0.006
   0.00947404 -0.00473702 -0.00473702       0.012
   0.01894809 -0.00947404 -0.00947404       0.012
   0.02842213 -0.01421107 -0.01421107       0.012
   0.03789617 -0.01894809 -0.01894809       0.012
   0.04737022 -0.02368511 -0.02368511       0.012
   0.05684426 -0.02842213 -0.02842213       0.012
   0.00473702  0.00473702 -0.00947404       0.012
   0.01421107  0.00000000 -0.01421107       0.012
   0.02368511 -0.00473702 -0.01894809       0.012
   0.03315915 -0.00947404 -0.02368511       0.012
   0.04263320 -0.01421107 -0.02842213       0.012
   0.05210724 -0.01894809 -0.03315915       0.012
   0.06158128 -0.02368511 -0.03789617       0.012
  -0.05210724  0.03315915  0.01894809       0.012
  -0.04263320  0.02842213  0.01421107       0.012
  -0.03315915  0.02368511  0.00947404       0.012
  -0.02368511  0.01894809  0.00473702       0.012
  -0.01421107  0.01421107  0.00000000       0.012
  -0.00473702  0.00947404 -0.00473702       0.012
   0.00947404  0.00947404 -0.01894809       0.012
   0.01894809  0.00473702 -0.02368511       0.012
   0.02842213  0.00000000 -0.02842213       0.012
   0.03789617 -0.00473702 -0.03315915       0.012
   0.04737022 -0.00947404 -0.03789617       0.012
   0.05684426 -0.01421107 -0.04263320       0.012
   0.06631831 -0.01894809 -0.04737022       0.012
  -0.04737022  0.03789617  0.00947404       0.012
  -0.03789617  0.03315915  0.00473702       0.012
  -0.02842213  0.02842213 -0.00000000       0.012
  -0.01894809  0.02368511 -0.00473702       0.012
  -0.00947404  0.01894809 -0.00947404       0.012
   0.00000000  0.01421107 -0.01421107       0.012
   0.01421107  0.01421107 -0.02842213       0.012
   0.02368511  0.00947404 -0.03315915       0.012
   0.03315915  0.00473702 -0.03789617       0.012
   0.04263320  0.00000000 -0.04263320       0.012
   0.05210724 -0.00473702 -0.04737022       0.012
   0.06158128 -0.00947404 -0.05210724       0.012
   0.07105533 -0.01421107 -0.05684426       0.012
  -0.04263320  0.04263320  0.00000000       0.012
  -0.03315915  0.03789617 -0.00473702       0.012
  -0.02368511  0.03315915 -0.00947404       0.012
  -0.01421107  0.02842213 -0.01421107       0.012
  -0.00473702  0.02368511 -0.01894809       0.012
   0.00473702  0.01894809 -0.02368511       0.012
   0.01894809  0.01894809 -0.03789617       0.012
   0.02842213  0.01421107 -0.04263320       0.012
   0.03789617  0.00947404 -0.04737022       0.012
   0.04737022  0.00473702 -0.05210724       0.012
   0.05684426  0.00000000 -0.05684426       0.012
   0.06631831 -0.00473702 -0.06158128       0.012
   0.07579235 -0.00947404 -0.06631831       0.012
  -0.03789617  0.04737022 -0.00947404       0.012
  -0.02842213  0.04263320 -0.01421107       0.012
  -0.01894809  0.03789617 -0.01894809       0.012
  -0.00947404  0.03315915 -0.02368511       0.012
  -0.00000000  0.02842213 -0.02842213       0.012
   0.00947404  0.02368511 -0.03315915       0.012
   0.02368511  0.02368511 -0.04737022       0.012
   0.03315915  0.01894809 -0.05210724       0.012
   0.04263320  0.01421107 -0.05684426       0.012
   0.05210724  0.00947404 -0.06158128       0.012
   0.06158128  0.00473702 -0.06631831       0.012
   0.07105533  0.00000000 -0.07105533       0.012
   0.08052937 -0.00473702 -0.07579235       0.012
  -0.03315915  0.05210724 -0.01894809       0.012
  -0.02368511  0.04737022 -0.02368511       0.012
  -0.01421107  0.04263320 -0.02842213       0.012
  -0.00473702  0.03789617 -0.03315915       0.012
   0.00473702  0.03315915 -0.03789617       0.012
   0.01421107  0.02842213 -0.04263320       0.012
   0.02842213  0.02842213 -0.05684426       0.012
   0.03789617  0.02368511 -0.06158128       0.012
   0.04737022  0.01894809 -0.06631831       0.012
   0.05684426  0.01421107 -0.07105533       0.012
   0.06631831  0.00947404 -0.07579235       0.012
   0.07579235  0.00473702 -0.08052937       0.012
   0.08526639  0.00000000 -0.08526639       0.012
  -0.02842213  0.05684426 -0.02842213       0.012
  -0.01894809  0.05210724 -0.03315915       0.012
  -0.00947404  0.04737022 -0.03789617       0.012
   0.00000000  0.04263320 -0.04263320       0.012
   0.00947404  0.03789617 -0.04737022       0.012
   0.01894809  0.03315915 -0.05210724       0.012

 k-points in reciprocal lattice and weights: K-Point Grid Created by Matt Darby on 30
   0.00000000  0.00000000  0.00000000       0.006
   0.07692308  0.00000000  0.00000000       0.012
   0.15384615  0.00000000  0.00000000       0.012
   0.23076923  0.00000000  0.00000000       0.012
   0.30769231  0.00000000  0.00000000       0.012
   0.38461538  0.00000000  0.00000000       0.012
   0.46153846  0.00000000  0.00000000       0.012
   0.00000000  0.07692308  0.00000000       0.012
   0.07692308  0.07692308  0.00000000       0.012
   0.15384615  0.07692308  0.00000000       0.012
   0.23076923  0.07692308 -0.00000000       0.012
   0.30769231  0.07692308  0.00000000       0.012
   0.38461538  0.07692308 -0.00000000       0.012
   0.46153846  0.07692308 -0.00000000       0.012
  -0.46153846  0.07692308 -0.00000000       0.012
  -0.38461538  0.07692308 -0.00000000       0.012
  -0.30769231  0.07692308 -0.00000000       0.012
  -0.23076923  0.07692308  0.00000000       0.012
  -0.15384615  0.07692308 -0.00000000       0.012
  -0.07692308  0.07692308  0.00000000       0.012
  -0.00000000  0.15384615 -0.00000000       0.012
   0.07692308  0.15384615  0.00000000       0.012
   0.15384615  0.15384615  0.00000000       0.012
   0.23076923  0.15384615  0.00000000       0.012
   0.30769231  0.15384615  0.00000000       0.012
   0.38461538  0.15384615  0.00000000       0.012
   0.46153846  0.15384615  0.00000000       0.012
  -0.46153846  0.15384615  0.00000000       0.012
  -0.38461538  0.15384615  0.00000000       0.012
  -0.30769231  0.15384615 -0.00000000       0.012
  -0.23076923  0.15384615  0.00000000       0.012
  -0.15384615  0.15384615 -0.00000000       0.012
  -0.07692308  0.15384615 -0.00000000       0.012
  -0.00000000  0.23076923  0.00000000       0.012
   0.07692308  0.23076923 -0.00000000       0.012
   0.15384615  0.23076923  0.00000000       0.012
   0.23076923  0.23076923  0.00000000       0.012
   0.30769231  0.23076923  0.00000000       0.012
   0.38461538  0.23076923 -0.00000000       0.012
   0.46153846  0.23076923  0.00000000       0.012
  -0.46153846  0.23076923  0.00000000       0.012
  -0.38461538  0.23076923 -0.00000000       0.012
  -0.30769231  0.23076923  0.00000000       0.012
  -0.23076923  0.23076923 -0.00000000       0.012
  -0.15384615  0.23076923  0.00000000       0.012
  -0.07692308  0.23076923  0.00000000       0.012
  -0.00000000  0.30769231  0.00000000       0.012
   0.07692308  0.30769231  0.00000000       0.012
   0.15384615  0.30769231  0.00000000       0.012
   0.23076923  0.30769231  0.00000000       0.012
   0.30769231  0.30769231  0.00000000       0.012
   0.38461538  0.30769231  0.00000000       0.012
   0.46153846  0.30769231  0.00000000       0.012
  -0.46153846  0.30769231  0.00000000       0.012
  -0.38461538  0.30769231  0.00000000       0.012
  -0.30769231  0.30769231  0.00000000       0.012
  -0.23076923  0.30769231  0.00000000       0.012
  -0.15384615  0.30769231  0.00000000       0.012
  -0.07692308  0.30769231  0.00000000       0.012
  -0.00000000  0.38461538  0.00000000       0.012
   0.07692308  0.38461538 -0.00000000       0.012
   0.15384615  0.38461538  0.00000000       0.012
   0.23076923  0.38461538 -0.00000000       0.012
   0.30769231  0.38461538  0.00000000       0.012
   0.38461538  0.38461538  0.00000000       0.012
   0.46153846  0.38461538  0.00000000       0.012
  -0.46153846  0.38461538  0.00000000       0.012
  -0.38461538  0.38461538  0.00000000       0.012
  -0.30769231  0.38461538  0.00000000       0.012
  -0.23076923  0.38461538 -0.00000000       0.012
  -0.15384615  0.38461538  0.00000000       0.012
  -0.07692308  0.38461538 -0.00000000       0.012
  -0.00000000  0.46153846  0.00000000       0.012
   0.07692308  0.46153846  0.00000000       0.012
   0.15384615  0.46153846  0.00000000       0.012
   0.23076923  0.46153846  0.00000000       0.012
   0.30769231  0.46153846  0.00000000       0.012
   0.38461538  0.46153846  0.00000000       0.012
   0.46153846  0.46153846  0.00000000       0.012
  -0.46153846  0.46153846 -0.00000000       0.012
  -0.38461538  0.46153846  0.00000000       0.012
  -0.30769231  0.46153846  0.00000000       0.012
  -0.23076923  0.46153846  0.00000000       0.012
  -0.15384615  0.46153846 -0.00000000       0.012
  -0.07692308  0.46153846  0.00000000       0.012

 position of ions in fractional coordinates (direct lattice)
   0.22222222  0.11111111  0.00000000
   0.22222222  0.44444444  0.00000000
   0.22222222  0.77777778  0.00000000
   0.55555556  0.11111111  0.00000000
   0.55555556  0.44444444  0.00000000
   0.55555556  0.77777778  0.00000000
   0.88888889  0.11111111  0.00000000
   0.88888889  0.44444444  0.00000000
   0.88888889  0.77777778  0.00000000
   0.00000000  0.00000000  0.11363913
   0.00000000  0.33333333  0.11363913
   0.00000000  0.66666667  0.11363913
   0.33333333  0.00000000  0.11363913
   0.33333333  0.33333333  0.11363913
   0.33333333  0.66666667  0.11363913
   0.66666667  0.00000000  0.11363913
   0.66666667  0.33333333  0.11363913
   0.66666667  0.66666667  0.11363913
   0.99895051  0.99818022  0.45372879
   0.22362513  0.11191674  0.33981819
   0.11102732  0.22228826  0.22677062
   0.33498992  0.99812050  0.45391763
   0.55653571  0.11239778  0.34065642
   0.44567567  0.22218502  0.22674705
   0.66855846  0.00126143  0.45357188
   0.89104545  0.11247266  0.34064665
   0.77879352  0.22317291  0.22754802
   0.99899793  0.33490588  0.45384303
   0.22353648  0.44547166  0.33979475
   0.11237994  0.55566404  0.22719128
   0.55729839  0.44553813  0.33960508
   0.44569465  0.55710723  0.22675044
   0.67191263  0.33469252  0.45370665
   0.89013539  0.44509996  0.34024556
   0.77783449  0.55570105  0.22708779
   0.00190102  0.66802401  0.45345348
   0.22410282  0.77899938  0.34022783
   0.11240004  0.89035087  0.22718476
   0.33490842  0.67099795  0.45382230
   0.55654796  0.77803694  0.34060863
   0.44494005  0.88928832  0.22752557
   0.67196867  0.67126151  0.45359382
   0.89016836  0.77891845  0.34018508
   0.77880880  0.88924711  0.22752534
   0.33577910  0.33499445  0.45633307
   0.32727029  0.33218298  0.61691582
   0.31897053  0.45701336  0.64306877
   0.41707625  0.39333175  0.56522995
   0.41155368  0.28108294  0.65087725
   0.17504378  0.20606548  0.60598239

 position of ions in cartesian coordinates  (Angst):
   1.20286667 -0.60143333 -0.60143333
   1.20286667  1.20286667 -2.40573333
   1.20286667  3.00716667 -4.21003333
   3.00716667 -2.40573333 -0.60143333
   3.00716667 -0.60143333 -2.40573333
   3.00716667  1.20286667 -4.21003333
   4.81146667 -4.21003333 -0.60143333
   4.81146667 -2.40573333 -2.40573333
   4.81146667 -0.60143333 -4.21003333
   1.20286667  1.20286667  1.20286667
   1.20286667  3.00716667 -0.60143333
   1.20286667  4.81146667 -2.40573333
   3.00716667 -0.60143333  1.20286667
   3.00716667  1.20286667 -0.60143333
   3.00716667  3.00716667 -2.40573333
   4.81146667 -2.40573333  1.20286667
   4.81146667 -0.60143333 -0.60143333
   4.81146667  1.20286667 -2.40573333
  10.20992457  4.79853582 -0.60034439
   4.80742556  2.99229876  2.99117099
   3.00133990  3.00260442  1.19713596
   6.61797115  8.39416375 -0.59802224
   6.61830992  1.20176357  2.99743983
   4.81250841  1.19037807  1.19744531
   8.41988455  1.18903241  4.79421649
   8.42887426 -0.60860232  2.99693110
   6.62412026 -0.59893004  1.20057616
  10.21139044  1.20925073  2.99110250
   4.80669759  4.79802991  1.18542346
   3.01311406  4.80426526 -0.60294119
   6.61130984  2.98976229  1.18305607
   4.81264706  3.00321164 -0.61541927
   8.43946688  2.97713222  2.99081386
   8.41970267  1.19255656  1.19220728
   6.61405762  1.20133119 -0.60423693
   4.81008120  8.40544827  1.18384400
   4.81434728  6.60490075 -0.61534461
   3.01315391  6.61571379 -2.41463648
   6.61652088  6.62291411  1.17165027
   6.61787036  4.80422959 -0.60610423
   4.81676714  4.81356395 -2.40527761
   8.43857596  4.79744890  1.16780532
   8.41924096  2.99866406 -0.61535904
   6.62396295  3.00614028 -2.40505688
   6.64781026  4.82602430  3.01698010
   8.30151641  6.55662694  4.73196182
   8.53341880  7.55407518  4.33309560
   8.24053380  5.85441512  3.85387633
   9.11721474  6.18329070  5.36804196
   7.36179945  6.58222239  5.29889314



--------------------------------------------------------------------------------------------------------


 k-point  1 :   0.0000 0.0000 0.0000  plane waves:   16943
 k-point  2 :   0.0769 0.0000 0.0000  plane waves:   16935
 k-point  3 :   0.1538 0.0000 0.0000  plane waves:   16955
 k-point  4 :   0.2308 0.0000 0.0000  plane waves:   16932
 k-point  5 :   0.3077 0.0000 0.0000  plane waves:   16886
 k-point  6 :   0.3846 0.0000 0.0000  plane waves:   16874
 k-point  7 :   0.4615 0.0000 0.0000  plane waves:   16856
 k-point  8 :   0.0000 0.0769 0.0000  plane waves:   16935
 k-point  9 :   0.0769 0.0769 0.0000  plane waves:   16959
 k-point 10 :   0.1538 0.0769 0.0000  plane waves:   16930
 k-point 11 :   0.2308 0.0769-0.0000  plane waves:   16910
 k-point 12 :   0.3077 0.0769 0.0000  plane waves:   16914
 k-point 13 :   0.3846 0.0769-0.0000  plane waves:   16868
 k-point 14 :   0.4615 0.0769-0.0000  plane waves:   16856
 k-point 15 :  -0.4615 0.0769-0.0000  plane waves:   16868
 k-point 16 :  -0.3846 0.0769-0.0000  plane waves:   16914
 k-point 17 :  -0.3077 0.0769-0.0000  plane waves:   16910
 k-point 18 :  -0.2308 0.0769 0.0000  plane waves:   16930
 k-point 19 :  -0.1538 0.0769-0.0000  plane waves:   16959
 k-point 20 :  -0.0769 0.0769 0.0000  plane waves:   16935
 k-point 21 :  -0.0000 0.1538-0.0000  plane waves:   16955
 k-point 22 :   0.0769 0.1538 0.0000  plane waves:   16930
 k-point 23 :   0.1538 0.1538 0.0000  plane waves:   16933
 k-point 24 :   0.2308 0.1538 0.0000  plane waves:   16913
 k-point 25 :   0.3077 0.1538 0.0000  plane waves:   16897
 k-point 26 :   0.3846 0.1538 0.0000  plane waves:   16850
 k-point 27 :   0.4615 0.1538 0.0000  plane waves:   16850
 k-point 28 :  -0.4615 0.1538 0.0000  plane waves:   16897
 k-point 29 :  -0.3846 0.1538 0.0000  plane waves:   16913
 k-point 30 :  -0.3077 0.1538-0.0000  plane waves:   16933
 k-point 31 :  -0.2308 0.1538 0.0000  plane waves:   16930
 k-point 32 :  -0.1538 0.1538-0.0000  plane waves:   16955
 k-point 33 :  -0.0769 0.1538-0.0000  plane waves:   16959
 k-point 34 :  -0.0000 0.2308 0.0000  plane waves:   16932
 k-point 35 :   0.0769 0.2308-0.0000  plane waves:   16910
 k-point 36 :   0.1538 0.2308 0.0000  plane waves:   16913
 k-point 37 :   0.2308 0.2308 0.0000  plane waves:   16885
 k-point 38 :   0.3077 0.2308 0.0000  plane waves:   16884
 k-point 39 :   0.3846 0.2308-0.0000  plane waves:   16872
 k-point 40 :   0.4615 0.2308 0.0000  plane waves:   16884
 k-point 41 :  -0.4615 0.2308 0.0000  plane waves:   16885
 k-point 42 :  -0.3846 0.2308-0.0000  plane waves:   16913
 k-point 43 :  -0.3077 0.2308 0.0000  plane waves:   16910
 k-point 44 :  -0.2308 0.2308-0.0000  plane waves:   16932
 k-point 45 :  -0.1538 0.2308 0.0000  plane waves:   16930
 k-point 46 :  -0.0769 0.2308 0.0000  plane waves:   16930
 k-point 47 :  -0.0000 0.3077 0.0000  plane waves:   16886
 k-point 48 :   0.0769 0.3077 0.0000  plane waves:   16914
 k-point 49 :   0.1538 0.3077 0.0000  plane waves:   16897
 k-point 50 :   0.2308 0.3077 0.0000  plane waves:   16884
 k-point 51 :   0.3077 0.3077 0.0000  plane waves:   16896
 k-point 52 :   0.3846 0.3077 0.0000  plane waves:   16896
 k-point 53 :   0.4615 0.3077 0.0000  plane waves:   16884
 k-point 54 :  -0.4615 0.3077 0.0000  plane waves:   16897
 k-point 55 :  -0.3846 0.3077 0.0000  plane waves:   16914
 k-point 56 :  -0.3077 0.3077 0.0000  plane waves:   16886
 k-point 57 :  -0.2308 0.3077 0.0000  plane waves:   16910
 k-point 58 :  -0.1538 0.3077 0.0000  plane waves:   16933
 k-point 59 :  -0.0769 0.3077 0.0000  plane waves:   16910
 k-point 60 :  -0.0000 0.3846 0.0000  plane waves:   16874
 k-point 61 :   0.0769 0.3846-0.0000  plane waves:   16868
 k-point 62 :   0.1538 0.3846 0.0000  plane waves:   16850
 k-point 63 :   0.2308 0.3846-0.0000  plane waves:   16872
 k-point 64 :   0.3077 0.3846 0.0000  plane waves:   16896
 k-point 65 :   0.3846 0.3846 0.0000  plane waves:   16872
 k-point 66 :   0.4615 0.3846 0.0000  plane waves:   16850
 k-point 67 :  -0.4615 0.3846 0.0000  plane waves:   16868
 k-point 68 :  -0.3846 0.3846 0.0000  plane waves:   16874
 k-point 69 :  -0.3077 0.3846 0.0000  plane waves:   16914
 k-point 70 :  -0.2308 0.3846-0.0000  plane waves:   16913
 k-point 71 :  -0.1538 0.3846 0.0000  plane waves:   16913
 k-point 72 :  -0.0769 0.3846-0.0000  plane waves:   16914
 k-point 73 :  -0.0000 0.4615 0.0000  plane waves:   16856
 k-point 74 :   0.0769 0.4615 0.0000  plane waves:   16856
 k-point 75 :   0.1538 0.4615 0.0000  plane waves:   16850
 k-point 76 :   0.2308 0.4615 0.0000  plane waves:   16884
 k-point 77 :   0.3077 0.4615 0.0000  plane waves:   16884
 k-point 78 :   0.3846 0.4615 0.0000  plane waves:   16850
 k-point 79 :   0.4615 0.4615 0.0000  plane waves:   16856
 k-point 80 :  -0.4615 0.4615-0.0000  plane waves:   16856
 k-point 81 :  -0.3846 0.4615 0.0000  plane waves:   16868
 k-point 82 :  -0.3077 0.4615 0.0000  plane waves:   16897
 k-point 83 :  -0.2308 0.4615 0.0000  plane waves:   16885
 k-point 84 :  -0.1538 0.4615-0.0000  plane waves:   16897
 k-point 85 :  -0.0769 0.4615 0.0000  plane waves:   16868

 maximum and minimum number of plane-waves per node :      4265     4197

 maximum number of plane-waves:     16959
 maximum index in each direction:
   IXMAX=   12   IYMAX=   12   IZMAX=   29
   IXMIN=  -12   IYMIN=  -12   IZMIN=  -29

 NGX is ok and might be reduce to  50
 NGY is ok and might be reduce to  50
 NGZ is ok and might be reduce to 118

 real space projection operators:
  total allocation   :      32098.05 KBytes
  max/ min on nodes  :       8333.11       7714.81


 parallel 3D FFT for wavefunctions:
    minimum data exchange during FFTs selected (reduces bandwidth)
 parallel 3D FFT for charge:
    minimum data exchange during FFTs selected (reduces bandwidth)


 total amount of memory used by VASP on root node   292243. kBytes
========================================================================

   base      :      30000. kBytes
   nonlr-proj:      15881. kBytes
   fftplans  :       5374. kBytes
   grid      :      10087. kBytes
   one-center:        202. kBytes
   wavefun   :     230699. kBytes

     INWAV:  cpu time    0.0000: real time    0.0000
 Broyden mixing: mesh for mixing (old mesh)
   NGX = 25   NGY = 25   NGZ = 59
  (NGX  =100   NGY  =100   NGZ  =240)
  gives a total of  36875 points

 initial charge density was supplied:
 charge density of overlapping atoms calculated
 number of electron     501.0000000 magnetization
 keeping initial charge density in first step


--------------------------------------------------------------------------------------------------------


 Maximum index for non-local projection operator         1592
 Maximum index for augmentation-charges         1054 (set IRDMAX)


--------------------------------------------------------------------------------------------------------


 First call to EWALD:  gamma=   0.182
 Maximum number of real-space cells 4x 4x 2
 Maximum number of reciprocal cells 2x 2x 5

 FEWALD executed in parallel
    FEWALD:  cpu time    0.0028: real time    0.0028


----------------------------------------- Iteration    9(   1)  ---------------------------------------


    POTLOK:  cpu time    3.2004: real time    3.3481
    SETDIJ:  cpu time    0.0100: real time    0.0100
     EDDAV:  cpu time  119.9894: real time  120.1158
       DOS:  cpu time    0.0132: real time    0.0133
    CHARGE:  cpu time    3.9095: real time    3.9384
    MIXING:  cpu time    0.0013: real time    0.0013
    --------------------------------------------
      LOOP:  cpu time  127.1271: real time  127.4319

 eigenvalue-minimisations  : 51680
 total energy-change (2. order) :-0.1622992E-02  (-0.1839645E+00)
 number of electron     500.9999941 magnetization
 augmentation part      320.3924722 magnetization

 DIPCOR: dipole corrections for dipol
 direction  3 min pos   183,
 dipolmoment          -0.088541     -0.088541     -0.088541 electrons x Angstroem
 Tr[quadrupol]     -4867.622455

 energy correction for charged system         0.000000 eV
 dipol+quadrupol energy correction           -0.002287 eV
 added-field ion interaction         -7.191567 eV  (added to PSCEN)


  free energy =  -0.857844890403E+02  energy without entropy=  -0.857660908366E+02


--------------------------------------------------------------------------------------------------------




----------------------------------------- Iteration    9(   2)  ---------------------------------------


    POTLOK:  cpu time    3.1335: real time    3.1394
    SETDIJ:  cpu time    0.0104: real time    0.0104
    EDDIAG:  cpu time   17.6015: real time   17.6073
  RMM-DIIS:  cpu time   49.7493: real time   49.8878
    ORTHCH:  cpu time    2.7022: real time    2.7020
       DOS:  cpu time    0.0131: real time    0.0130
    CHARGE:  cpu time    3.9485: real time    3.9809
    MIXING:  cpu time    0.0014: real time    0.0014
    --------------------------------------------
      LOOP:  cpu time   77.1632: real time   77.3474

 eigenvalue-minimisations  : 51922
 total energy-change (2. order) :-0.4285820E-03  (-0.6295345E-03)
 number of electron     500.9999941 magnetization
 augmentation part      320.3989911 magnetization

 DIPCOR: dipole corrections for dipol
 direction  3 min pos   183,
 dipolmoment          -0.087643     -0.087643     -0.087643 electrons x Angstroem
 Tr[quadrupol]     -4867.634552

 energy correction for charged system         0.000000 eV
 dipol+quadrupol energy correction           -0.002241 eV
 added-field ion interaction         -7.118573 eV  (added to PSCEN)


 eigenvalues of (default mixing * dielectric matrix)
  average eigenvalue GAMMA=   0.5315
  0.5315

  free energy =  -0.857849176223E+02  energy without entropy=  -0.857663005616E+02


--------------------------------------------------------------------------------------------------------




----------------------------------------- Iteration    9(   3)  ---------------------------------------


    POTLOK:  cpu time    3.3926: real time    3.3959
    SETDIJ:  cpu time    0.0101: real time    0.0101
    EDDIAG:  cpu time   17.3722: real time   17.3711
  RMM-DIIS:  cpu time   50.1795: real time   50.3738
    ORTHCH:  cpu time    2.7180: real time    2.7173
       DOS:  cpu time    0.0134: real time    0.0134
    CHARGE:  cpu time    3.9929: real time    3.9925
    MIXING:  cpu time    0.0015: real time    0.0015
    --------------------------------------------
      LOOP:  cpu time   77.6831: real time   77.8816

 eigenvalue-minimisations  : 52707
 total energy-change (2. order) : 0.1097786E-03  (-0.6228761E-04)
 number of electron     500.9999941 magnetization
 augmentation part      320.3991374 magnetization

 DIPCOR: dipole corrections for dipol
 direction  3 min pos   183,
 dipolmoment          -0.087842     -0.087842     -0.087842 electrons x Angstroem
 Tr[quadrupol]     -4867.617977

 energy correction for charged system         0.000000 eV
 dipol+quadrupol energy correction           -0.002251 eV
 added-field ion interaction         -7.134795 eV  (added to PSCEN)


 eigenvalues of (default mixing * dielectric matrix)
  average eigenvalue GAMMA=   1.0482
  1.7378  0.3586

  free energy =  -0.857848078437E+02  energy without entropy=  -0.857664198253E+02


--------------------------------------------------------------------------------------------------------




----------------------------------------- Iteration    9(   4)  ---------------------------------------


    POTLOK:  cpu time    3.3749: real time    3.3909
    SETDIJ:  cpu time    0.0100: real time    0.0102
    EDDIAG:  cpu time   17.7593: real time   17.8115
  RMM-DIIS:  cpu time   49.6917: real time   49.6985
    ORTHCH:  cpu time    2.6005: real time    2.5995
       DOS:  cpu time    0.0131: real time    0.0131
    CHARGE:  cpu time    3.9415: real time    3.9399
    MIXING:  cpu time    0.0015: real time    0.0015
    --------------------------------------------
      LOOP:  cpu time   77.3950: real time   77.4722

 eigenvalue-minimisations  : 52028
 total energy-change (2. order) : 0.4319361E-04  (-0.1820591E-04)
 number of electron     500.9999941 magnetization
 augmentation part      320.3947565 magnetization

 DIPCOR: dipole corrections for dipol
 direction  3 min pos   183,
 dipolmoment          -0.088432     -0.088432     -0.088432 electrons x Angstroem
 Tr[quadrupol]     -4867.624452

 energy correction for charged system         0.000000 eV
 dipol+quadrupol energy correction           -0.002281 eV
 added-field ion interaction         -7.182709 eV  (added to PSCEN)


 eigenvalues of (default mixing * dielectric matrix)
  average eigenvalue GAMMA=   0.9829
  2.1462  0.4989  0.3036

  free energy =  -0.857847646501E+02  energy without entropy=  -0.857662618075E+02


--------------------------------------------------------------------------------------------------------




----------------------------------------- Iteration    9(   5)  ---------------------------------------


    POTLOK:  cpu time    3.2279: real time    3.2326
    SETDIJ:  cpu time    0.0100: real time    0.0100
    EDDIAG:  cpu time   17.4814: real time   17.5712
  RMM-DIIS:  cpu time   49.7677: real time   49.8106
    ORTHCH:  cpu time    2.5973: real time    2.5966
       DOS:  cpu time    0.0133: real time    0.0132
    CHARGE:  cpu time    3.8983: real time    3.8967
    MIXING:  cpu time    0.0016: real time    0.0016
    --------------------------------------------
      LOOP:  cpu time   76.9995: real time   77.1381

 eigenvalue-minimisations  : 51798
 total energy-change (2. order) :-0.4713215E-04  (-0.1248515E-04)
 number of electron     500.9999941 magnetization
 augmentation part      320.3939394 magnetization

 DIPCOR: dipole corrections for dipol
 direction  3 min pos   183,
 dipolmoment          -0.086471     -0.086471     -0.086471 electrons x Angstroem
 Tr[quadrupol]     -4867.623456

 energy correction for charged system         0.000000 eV
 dipol+quadrupol energy correction           -0.002181 eV
 added-field ion interaction         -7.023410 eV  (added to PSCEN)


 eigenvalues of (default mixing * dielectric matrix)
  average eigenvalue GAMMA=   0.8957
  2.4187  0.6152  0.3604  0.1887

  free energy =  -0.857848117822E+02  energy without entropy=  -0.857663775529E+02


--------------------------------------------------------------------------------------------------------




----------------------------------------- Iteration    9(   6)  ---------------------------------------


    POTLOK:  cpu time    3.0972: real time    3.0960
    SETDIJ:  cpu time    0.0101: real time    0.0101
    EDDIAG:  cpu time   17.7001: real time   17.7307
  RMM-DIIS:  cpu time   49.8396: real time   49.9171
    ORTHCH:  cpu time    2.6261: real time    2.6248
       DOS:  cpu time    0.0134: real time    0.0134
    CHARGE:  cpu time    3.9786: real time    3.9770
    MIXING:  cpu time    0.0016: real time    0.0016
    --------------------------------------------
      LOOP:  cpu time   77.2690: real time   77.3763

 eigenvalue-minimisations  : 52010
 total energy-change (2. order) : 0.8340139E-04  (-0.6081892E-05)
 number of electron     500.9999941 magnetization
 augmentation part      320.3979137 magnetization

 DIPCOR: dipole corrections for dipol
 direction  3 min pos   183,
 dipolmoment          -0.088174     -0.088174     -0.088174 electrons x Angstroem
 Tr[quadrupol]     -4867.616651

 energy correction for charged system         0.000000 eV
 dipol+quadrupol energy correction           -0.002268 eV
 added-field ion interaction         -7.161756 eV  (added to PSCEN)


 eigenvalues of (default mixing * dielectric matrix)
  average eigenvalue GAMMA=   0.8512
  2.3695  1.0221  0.4084  0.2992  0.1569

  free energy =  -0.857847283808E+02  energy without entropy=  -0.857662362713E+02


--------------------------------------------------------------------------------------------------------




----------------------------------------- Iteration    9(   7)  ---------------------------------------


    POTLOK:  cpu time    3.1750: real time    3.1737
    SETDIJ:  cpu time    0.0103: real time    0.0103
    EDDIAG:  cpu time   17.3926: real time   17.4104
  RMM-DIIS:  cpu time   49.6826: real time   49.7617
    ORTHCH:  cpu time    2.6995: real time    2.6986
       DOS:  cpu time    0.0128: real time    0.0129
    CHARGE:  cpu time    3.9543: real time    3.9531
    MIXING:  cpu time    0.0017: real time    0.0017
    --------------------------------------------
      LOOP:  cpu time   76.9316: real time   77.0300

 eigenvalue-minimisations  : 51685
 total energy-change (2. order) : 0.1848085E-04  (-0.2057473E-05)
 number of electron     500.9999941 magnetization
 augmentation part      320.3981886 magnetization

 DIPCOR: dipole corrections for dipol
 direction  3 min pos   183,
 dipolmoment          -0.087313     -0.087313     -0.087313 electrons x Angstroem
 Tr[quadrupol]     -4867.617505

 energy correction for charged system         0.000000 eV
 dipol+quadrupol energy correction           -0.002224 eV
 added-field ion interaction         -7.091810 eV  (added to PSCEN)


 eigenvalues of (default mixing * dielectric matrix)
  average eigenvalue GAMMA=   0.8081
  2.3490  1.1085  0.6139  0.3485  0.2892  0.1396

  free energy =  -0.857847099000E+02  energy without entropy=  -0.857662542655E+02


--------------------------------------------------------------------------------------------------------




----------------------------------------- Iteration    9(   8)  ---------------------------------------


    POTLOK:  cpu time    3.2400: real time    3.2386
    SETDIJ:  cpu time    0.0103: real time    0.0103
    EDDIAG:  cpu time   18.0034: real time   18.1045
  RMM-DIIS:  cpu time   49.8232: real time   49.8792
    ORTHCH:  cpu time    2.5769: real time    2.5759
       DOS:  cpu time    0.0133: real time    0.0133
    CHARGE:  cpu time    3.8895: real time    3.8881
    MIXING:  cpu time    0.0018: real time    0.0017
    --------------------------------------------
      LOOP:  cpu time   77.5608: real time   77.7173

 eigenvalue-minimisations  : 51680
 total energy-change (2. order) : 0.3297864E-05  (-0.3872327E-06)
 number of electron     500.9999941 magnetization
 augmentation part      320.3972576 magnetization

 DIPCOR: dipole corrections for dipol
 direction  3 min pos   183,
 dipolmoment          -0.087518     -0.087518     -0.087518 electrons x Angstroem
 Tr[quadrupol]     -4867.617765

 energy correction for charged system         0.000000 eV
 dipol+quadrupol energy correction           -0.002234 eV
 added-field ion interaction         -7.108419 eV  (added to PSCEN)


 eigenvalues of (default mixing * dielectric matrix)
  average eigenvalue GAMMA=   0.8127
  2.3222  1.3761  0.8007  0.4280  0.3436  0.2791  0.1393

  free energy =  -0.857847066021E+02  energy without entropy=  -0.857662304606E+02


--------------------------------------------------------------------------------------------------------




----------------------------------------- Iteration    9(   9)  ---------------------------------------


    POTLOK:  cpu time    3.0096: real time    3.0085
    SETDIJ:  cpu time    0.0101: real time    0.0101
    EDDIAG:  cpu time   17.7104: real time   17.7376
  RMM-DIIS:  cpu time   49.4183: real time   49.4776
    ORTHCH:  cpu time    2.5741: real time    2.5732
       DOS:  cpu time    0.0125: real time    0.0125
    CHARGE:  cpu time    3.8935: real time    3.8927
    MIXING:  cpu time    0.0018: real time    0.0018
    --------------------------------------------
      LOOP:  cpu time   76.6325: real time   76.7206

 eigenvalue-minimisations  : 51128
 total energy-change (2. order) : 0.2082670E-06  (-0.1335488E-06)
 number of electron     500.9999941 magnetization
 augmentation part      320.3972113 magnetization

 DIPCOR: dipole corrections for dipol
 direction  3 min pos   183,
 dipolmoment          -0.087512     -0.087512     -0.087512 electrons x Angstroem
 Tr[quadrupol]     -4867.617208

 energy correction for charged system         0.000000 eV
 dipol+quadrupol energy correction           -0.002234 eV
 added-field ion interaction         -7.107988 eV  (added to PSCEN)


 eigenvalues of (default mixing * dielectric matrix)
  average eigenvalue GAMMA=   0.8659
  2.4030  1.7261  0.9591  0.6605  0.4090  0.3471  0.2824  0.1396

  free energy =  -0.857847063939E+02  energy without entropy=  -0.857662323635E+02


--------------------------------------------------------------------------------------------------------




----------------------------------------- Iteration    9(  10)  ---------------------------------------


    POTLOK:  cpu time    3.0479: real time    3.0522
    SETDIJ:  cpu time    0.0117: real time    0.0138
    EDDIAG:  cpu time   17.6099: real time   17.6181
  RMM-DIIS:  cpu time   31.6948: real time   31.7093
    ORTHCH:  cpu time    2.7234: real time    2.7221
       DOS:  cpu time    0.0131: real time    0.0131
    CHARGE:  cpu time    3.9413: real time    3.9463
    MIXING:  cpu time    0.0019: real time    0.0019
    --------------------------------------------
      LOOP:  cpu time   59.0461: real time   59.0818

 eigenvalue-minimisations  : 30901
 total energy-change (2. order) :-0.3038876E-06  (-0.1760408E-07)
 number of electron     500.9999941 magnetization
 augmentation part      320.3974291 magnetization

 DIPCOR: dipole corrections for dipol
 direction  3 min pos   183,
 dipolmoment          -0.087463     -0.087463     -0.087463 electrons x Angstroem
 Tr[quadrupol]     -4867.616643

 energy correction for charged system         0.000000 eV
 dipol+quadrupol energy correction           -0.002232 eV
 added-field ion interaction         -7.104001 eV  (added to PSCEN)


 eigenvalues of (default mixing * dielectric matrix)
  average eigenvalue GAMMA=   0.9208
  2.4850  1.7387  1.3256  0.9637  0.6040  0.1397  0.2831  0.3457  0.4015

  free energy =  -0.857847066977E+02  energy without entropy=  -0.857662319929E+02


--------------------------------------------------------------------------------------------------------




----------------------------------------- Iteration    9(  11)  ---------------------------------------


    POTLOK:  cpu time    3.0487: real time    3.0565
    SETDIJ:  cpu time    0.0102: real time    0.0102
    EDDIAG:  cpu time   17.6713: real time   17.7533
  RMM-DIIS:  cpu time   30.4391: real time   30.5171
    ORTHCH:  cpu time    2.7236: real time    2.7226
       DOS:  cpu time    0.0129: real time    0.0128
    --------------------------------------------
      LOOP:  cpu time   53.9085: real time   54.0795

 eigenvalue-minimisations  : 29427
 total energy-change (2. order) :-0.4687172E-07  (-0.7284230E-08)
 number of electron     500.9999941 magnetization
 augmentation part      320.3974291 magnetization

 DIPCOR: dipole corrections for dipol
 direction  3 min pos   183,
 dipolmoment          -0.087445     -0.087445     -0.087445 electrons x Angstroem
 Tr[quadrupol]     -4867.616003

 energy correction for charged system         0.000000 eV
 dipol+quadrupol energy correction           -0.002231 eV
 added-field ion interaction         -7.102509 eV  (added to PSCEN)


  free energy =  -0.857847067446E+02  energy without entropy=  -0.857662320269E+02


--------------------------------------------------------------------------------------------------------




 average (electrostatic) potential at core
  the test charge radii are     1.0053  1.1806  0.6991  0.5201
  (the norm of the test charge is              1.0000)
       1 -42.9739       2 -42.9738       3 -42.9763       4 -42.9652       5 -42.9732
       6 -42.9652       7 -42.9651       8 -42.9765       9 -42.9763      10 -43.2423
      11 -43.2422      12 -43.2605      13 -43.2425      14 -43.2459      15 -43.2423
      16 -43.2530      17 -43.2423      18 -43.2422      19 -42.9395      20 -43.1822
      21 -43.2384      22 -42.9320      23 -43.2368      24 -43.2390      25 -42.9799
      26 -43.2355      27 -43.2543      28 -42.9341      29 -43.1814      30 -43.2595
      31 -43.1782      32 -43.2390      33 -42.9386      34 -43.2205      35 -43.2592
      36 -42.9802      37 -43.2191      38 -43.2595      39 -42.9336      40 -43.2371
      41 -43.2549      42 -42.9428      43 -43.2211      44 -43.2546      45 -53.9185
      46 -53.7718      47 -37.3664      48 -37.6318      49 -37.3831      50 -37.3756



 E-fermi :   0.3121     XC(G=0):  -8.8804     alpha+bet : -5.8352


--------------------------------------------------------------------------------------------------------


 soft charge-density along one line, spin component           1
         0         1         2         3         4         5         6         7         8         9
 total charge-density along one line

 pseudopotential strength for first ion, spin component:           1
 -8.856   0.013  -0.016   0.013   0.000   0.836  -0.006   0.008
  0.013  -8.857   0.008   0.013  -0.014  -0.006   0.836  -0.004
 -0.016   0.008  -8.846   0.008  -0.000   0.008  -0.004   0.831
  0.013   0.013   0.008  -8.857   0.014  -0.006  -0.006  -0.004
  0.000  -0.014  -0.000   0.014  -8.846  -0.000   0.007   0.000
  0.836  -0.006   0.008  -0.006  -0.000   1.187   0.003  -0.003
 -0.006   0.836  -0.004  -0.006   0.007   0.003   1.187   0.002
  0.008  -0.004   0.831  -0.004   0.000  -0.003   0.002   1.189
 -0.006  -0.006  -0.004   0.836  -0.007   0.003   0.003   0.002
 -0.000   0.007   0.000  -0.007   0.831   0.000  -0.003  -0.000
 -0.004  -0.004   0.000  -0.004  -0.000   0.001   0.001  -0.000
  0.000   0.000  -0.000   0.000   0.000  -0.000  -0.000   0.000
 -0.004  -0.003   0.003   0.000   0.005   0.003   0.002  -0.002
  0.000  -0.004  -0.005  -0.004  -0.000  -0.000   0.003   0.003
 -0.004   0.000   0.003  -0.003  -0.005   0.003  -0.000  -0.002
  0.002   0.002  -0.001  -0.000  -0.002  -0.001  -0.001   0.001
 -0.000   0.002   0.002   0.002   0.000   0.000  -0.001  -0.001
  0.002  -0.000  -0.001   0.002   0.002  -0.001   0.000   0.001
 total augmentation occupancy for first ion, spin component:           1
  1.917   0.003  -0.002   0.003   0.000  -0.024  -0.008   0.012  -0.008  -0.000   0.007   0.021   0.015   0.007   0.015  -0.003
  0.003   1.916   0.001   0.003  -0.002  -0.008  -0.024  -0.006  -0.008   0.011   0.007   0.021   0.015   0.014   0.009  -0.003
 -0.002   0.001   1.921   0.001  -0.000   0.012  -0.006  -0.049  -0.006   0.000  -0.002  -0.000   0.001  -0.001   0.001   0.001
  0.003   0.003   0.001   1.916   0.002  -0.008  -0.008  -0.006  -0.024  -0.011   0.007   0.021   0.009   0.014   0.015  -0.000
  0.000  -0.002  -0.000   0.002   1.921  -0.000   0.011   0.000  -0.011  -0.049  -0.000  -0.000   0.002  -0.000  -0.002   0.002
 -0.024  -0.008   0.012  -0.008  -0.000   0.061   0.001   0.008   0.001   0.000  -0.049   0.008   0.023   0.001   0.023  -0.001
 -0.008  -0.024  -0.006  -0.008   0.011   0.001   0.061  -0.004   0.001   0.006  -0.049   0.008   0.023   0.023   0.000  -0.001
  0.012  -0.006  -0.049  -0.006   0.000   0.008  -0.004   0.051  -0.004  -0.000   0.001   0.000  -0.010   0.019  -0.010   0.001
 -0.008  -0.008  -0.006  -0.024  -0.011   0.001   0.001  -0.004   0.061  -0.006  -0.049   0.008   0.000   0.023   0.023   0.000
 -0.000   0.011   0.000  -0.011  -0.049   0.000   0.006  -0.000  -0.006   0.051   0.000   0.000  -0.016   0.000   0.016   0.001
  0.007   0.007  -0.002   0.007  -0.000  -0.049  -0.049   0.001  -0.049   0.000   1.258  -0.282   0.039   0.037   0.039  -0.007
  0.021   0.021  -0.000   0.021  -0.000   0.008   0.008   0.000   0.008   0.000  -0.282   0.110  -0.028  -0.028  -0.028   0.003
  0.015   0.015   0.001   0.009   0.002   0.023   0.023  -0.010   0.000  -0.016   0.039  -0.028   0.149  -0.023  -0.023  -0.009
  0.007   0.014  -0.001   0.014  -0.000   0.001   0.023   0.019   0.023   0.000   0.037  -0.028  -0.023   0.151  -0.023   0.001
  0.015   0.009   0.001   0.015  -0.002   0.023   0.000  -0.010   0.023   0.016   0.039  -0.028  -0.023  -0.023   0.149   0.001
 -0.003  -0.003   0.001  -0.000   0.002  -0.001  -0.001   0.001   0.000   0.001  -0.007   0.003  -0.009   0.001   0.001   0.001
 -0.000  -0.003  -0.002  -0.003  -0.000   0.000  -0.001  -0.002  -0.001  -0.000  -0.007   0.003   0.001  -0.009   0.001  -0.000
 -0.003  -0.000   0.001  -0.003  -0.002  -0.001   0.000   0.001  -0.001  -0.001  -0.007   0.003   0.001   0.001  -0.009  -0.000


------------------------ aborting loop because EDIFF is reached ----------------------------------------


    CHARGE:  cpu time    4.1197: real time    4.1598
    FORLOC:  cpu time    0.0218: real time    0.0227
    FORNL :  cpu time   24.1142: real time   24.1250
    STRESS:  cpu time   72.2808: real time   72.5741
    FORCOR:  cpu time    3.1950: real time    3.1946
    FORHAR:  cpu time    0.0371: real time    0.0371
    MIXING:  cpu time    0.0011: real time    0.0020
    OFIELD:  cpu time    0.0001: real time    0.0001

  FORCE on cell =-STRESS in cart. coord.  units (eV):
  Direction    XX          YY          ZZ          XY          YZ          ZX
  --------------------------------------------------------------------------------------
  Alpha Z  2831.17846  2831.17846  2831.17846
  Ewald   25709.00955 25705.51645 25705.27891-84183.36750-84181.39645-84182.66133
  Hartree 45480.70139 45479.22634 45479.32414-81771.17830-81770.04545-81770.41336
  E(xc)   -2831.21804 -2831.23420 -2831.24469    -0.08097    -0.09560    -0.08082
  Local  -75723.18808-75718.47744-75718.36383165946.98596165943.92174165945.46677
  n-local -1680.87690 -1680.81437 -1680.80699    -2.64998    -2.57117    -2.61618
  augment  2521.71302  2521.73257  2521.74926     4.64286     4.62437     4.63061
  Kinetic  3680.63736  3680.90536  3680.95480     9.00301     9.05195     9.08017
  Fock        0.00000     0.00000     0.00000     0.00000     0.00000     0.00000
  -------------------------------------------------------------------------------------
  Total     -12.04322   -11.96682   -11.92995     3.35508     3.48939     3.40587
  in kB     -20.73874   -20.60717   -20.54368     5.77754     6.00881     5.86500
  external pressure =      -20.63 kB  Pullay stress =        0.00 kB


 VOLUME and BASIS-vectors are now :
 -----------------------------------------------------------------------------
  energy-cutoff  :      400.00
  volume of cell :      930.40
      direct lattice vectors                 reciprocal lattice vectors
     5.412900000 -5.412900000 -0.000000000     0.123162568 -0.061581284 -0.061581284
     0.000000000  5.412900000 -5.412900000     0.061581284  0.061581284 -0.123162568
    10.584969359 10.584969359 10.584969359     0.031491195  0.031491195  0.031491195

  length of vectors
     7.654996592  7.654996592 18.333704726     0.150842724  0.150842724  0.054544350


 FORCES acting on ions
    electron-ion (+dipol)            ewald-force                    non-local-force                 convergence-correction
 -----------------------------------------------------------------------------------------------
   0.191E+04 0.191E+04 0.191E+04   -.191E+04 -.191E+04 -.191E+04   -.396E+00 -.396E+00 -.216E+00   0.427E-03 0.430E-03 0.372E-03
   0.191E+04 0.191E+04 0.191E+04   -.191E+04 -.191E+04 -.191E+04   -.394E+00 -.213E+00 -.395E+00   0.415E-03 0.382E-03 0.417E-03
   0.191E+04 0.191E+04 0.191E+04   -.191E+04 -.191E+04 -.191E+04   -.332E+00 -.412E+00 -.410E+00   0.367E-03 0.352E-03 0.373E-03
   0.191E+04 0.192E+04 0.191E+04   -.191E+04 -.191E+04 -.191E+04   -.404E+00 -.351E+00 -.403E+00   0.336E-03 0.418E-03 0.344E-03
   0.191E+04 0.191E+04 0.191E+04   -.191E+04 -.191E+04 -.191E+04   -.207E+00 -.391E+00 -.391E+00   0.367E-03 0.436E-03 0.437E-03
   0.191E+04 0.191E+04 0.192E+04   -.191E+04 -.191E+04 -.191E+04   -.403E+00 -.401E+00 -.351E+00   0.316E-03 0.346E-03 0.417E-03
   0.192E+04 0.191E+04 0.191E+04   -.191E+04 -.191E+04 -.191E+04   -.355E+00 -.408E+00 -.407E+00   0.419E-03 0.336E-03 0.317E-03
   0.191E+04 0.191E+04 0.191E+04   -.191E+04 -.191E+04 -.191E+04   -.409E+00 -.406E+00 -.331E+00   0.383E-03 0.351E-03 0.366E-03
   0.191E+04 0.191E+04 0.191E+04   -.191E+04 -.191E+04 -.191E+04   -.410E+00 -.331E+00 -.406E+00   0.376E-03 0.357E-03 0.363E-03
   0.972E+03 0.971E+03 0.969E+03   -.971E+03 -.971E+03 -.968E+03   -.343E+00 -.396E+00 -.365E+00   0.437E-03 0.329E-03 0.342E-03
   0.971E+03 0.969E+03 0.971E+03   -.971E+03 -.968E+03 -.971E+03   -.344E+00 -.364E+00 -.393E+00   0.417E-03 0.342E-03 0.323E-03
   0.969E+03 0.969E+03 0.969E+03   -.969E+03 -.969E+03 -.969E+03   -.585E+00 -.588E+00 -.589E+00   0.361E-03 0.368E-03 0.371E-03
   0.971E+03 0.972E+03 0.969E+03   -.971E+03 -.971E+03 -.968E+03   -.396E+00 -.339E+00 -.362E+00   0.353E-03 0.454E-03 0.338E-03
   0.971E+03 0.971E+03 0.971E+03   -.971E+03 -.971E+03 -.971E+03   -.419E+00 -.419E+00 -.420E+00   0.360E-03 0.324E-03 0.347E-03
   0.971E+03 0.969E+03 0.972E+03   -.971E+03 -.968E+03 -.971E+03   -.393E+00 -.360E+00 -.338E+00   0.330E-03 0.340E-03 0.431E-03
   0.970E+03 0.970E+03 0.970E+03   -.969E+03 -.969E+03 -.969E+03   -.451E+00 -.454E+00 -.455E+00   0.399E-03 0.414E-03 0.396E-03
   0.969E+03 0.972E+03 0.971E+03   -.968E+03 -.971E+03 -.971E+03   -.363E+00 -.342E+00 -.392E+00   0.345E-03 0.464E-03 0.355E-03
   0.969E+03 0.971E+03 0.972E+03   -.968E+03 -.971E+03 -.971E+03   -.361E+00 -.391E+00 -.339E+00   0.347E-03 0.339E-03 0.459E-03
   -.191E+04 -.188E+04 -.186E+04   0.191E+04 0.188E+04 0.186E+04   0.494E-01 0.117E+00 0.558E+00   0.191E-03 -.317E-03 -.710E-03
   -.978E+03 -.978E+03 -.942E+03   0.979E+03 0.978E+03 0.942E+03   -.678E+00 -.678E+00 0.283E+00   -.142E-03 -.819E-04 -.372E-03
   0.410E+01 0.890E+01 0.910E+01   -.405E+01 -.881E+01 -.901E+01   -.511E-01 -.920E-01 -.898E-01   0.254E-03 -.491E-04 0.199E-04
   -.189E+04 -.191E+04 -.186E+04   0.189E+04 0.191E+04 0.186E+04   0.117E+00 0.180E-01 0.578E+00   -.295E-03 0.375E-05 -.362E-03
   -.946E+03 -.966E+03 -.946E+03   0.945E+03 0.965E+03 0.946E+03   0.362E+00 0.829E+00 0.353E+00   -.383E-03 0.118E-04 -.526E-03
   0.909E+01 0.417E+01 0.899E+01   -.899E+01 -.411E+01 -.890E+01   -.923E-01 -.532E-01 -.953E-01   -.189E-04 0.243E-03 -.649E-04
   -.189E+04 -.189E+04 -.189E+04   0.189E+04 0.189E+04 0.189E+04   0.490E+00 0.506E+00 0.502E+00   -.291E-03 -.338E-03 -.407E-03
   -.965E+03 -.945E+03 -.945E+03   0.964E+03 0.945E+03 0.945E+03   0.819E+00 0.359E+00 0.358E+00   0.937E-04 -.566E-03 -.454E-03
   0.735E+01 0.736E+01 0.666E+01   -.734E+01 -.734E+01 -.670E+01   -.127E-01 -.155E-01 0.466E-01   0.231E-03 0.149E-03 0.449E-04
   -.191E+04 -.186E+04 -.188E+04   0.191E+04 0.186E+04 0.188E+04   0.300E-01 0.572E+00 0.111E+00   0.333E-03 -.847E-03 -.266E-03
   -.978E+03 -.942E+03 -.978E+03   0.979E+03 0.942E+03 0.978E+03   -.686E+00 0.284E+00 -.682E+00   0.552E-04 -.382E-03 0.113E-03
   0.827E+01 0.660E+01 0.842E+01   -.803E+01 -.666E+01 -.819E+01   -.243E+00 0.604E-01 -.240E+00   0.232E-03 0.122E-03 0.224E-03
   -.942E+03 -.977E+03 -.977E+03   0.942E+03 0.978E+03 0.978E+03   0.275E+00 -.708E+00 -.702E+00   -.348E-03 -.222E-03 -.304E-03
   0.912E+01 0.888E+01 0.413E+01   -.903E+01 -.878E+01 -.408E+01   -.905E-01 -.934E-01 -.490E-01   0.264E-04 -.875E-04 0.264E-03
   -.186E+04 -.191E+04 -.189E+04   0.186E+04 0.191E+04 0.189E+04   0.585E+00 0.819E-01 0.116E+00   -.295E-03 -.178E-03 -.378E-03
   -.947E+03 -.947E+03 -.948E+03   0.946E+03 0.946E+03 0.947E+03   0.455E+00 0.465E+00 0.405E+00   -.180E-03 -.107E-03 -.202E-03
   0.689E+01 0.879E+01 0.869E+01   -.694E+01 -.854E+01 -.844E+01   0.521E-01 -.251E+00 -.250E+00   0.897E-04 0.226E-03 0.269E-03
   -.189E+04 -.189E+04 -.189E+04   0.189E+04 0.189E+04 0.189E+04   0.341E+00 0.337E+00 0.342E+00   -.324E-03 -.236E-03 -.338E-03
   -.948E+03 -.947E+03 -.947E+03   0.948E+03 0.946E+03 0.946E+03   0.401E+00 0.458E+00 0.461E+00   -.241E-03 -.724E-04 -.170E-03
   0.839E+01 0.863E+01 0.667E+01   -.816E+01 -.839E+01 -.673E+01   -.239E+00 -.235E+00 0.640E-01   0.243E-03 0.235E-03 0.104E-03
   -.189E+04 -.186E+04 -.191E+04   0.189E+04 0.186E+04 0.191E+04   0.140E+00 0.579E+00 0.464E-01   -.270E-03 -.740E-03 0.176E-03
   -.945E+03 -.946E+03 -.965E+03   0.945E+03 0.945E+03 0.964E+03   0.360E+00 0.353E+00 0.825E+00   -.313E-03 -.567E-03 -.328E-04
   0.673E+01 0.728E+01 0.723E+01   -.677E+01 -.727E+01 -.722E+01   0.421E-01 -.150E-01 -.173E-01   0.992E-04 0.137E-03 0.117E-03
   -.186E+04 -.188E+04 -.191E+04   0.186E+04 0.188E+04 0.191E+04   0.562E+00 0.127E+00 0.990E-01   -.409E-03 -.420E-03 -.128E-03
   -.946E+03 -.947E+03 -.946E+03   0.946E+03 0.947E+03 0.946E+03   0.455E+00 0.404E+00 0.467E+00   -.137E-03 -.183E-03 -.153E-03
   0.755E+01 0.671E+01 0.758E+01   -.754E+01 -.676E+01 -.756E+01   -.113E-01 0.446E-01 -.171E-01   0.291E-03 -.304E-05 0.232E-03
   -.151E+04 -.151E+04 -.152E+04   0.151E+04 0.151E+04 0.151E+04   0.150E+01 0.149E+01 0.147E+01   -.379E-03 0.153E-02 0.453E-03
   -.412E+03 -.412E+03 -.413E+03   0.412E+03 0.413E+03 0.413E+03   -.107E+00 -.594E+00 -.718E+00   -.538E-03 0.373E-03 0.381E-03
   -.892E+02 -.123E+03 -.587E+02   0.905E+02 0.128E+03 0.567E+02   -.135E+01 -.500E+01 0.198E+01   -.944E-04 -.442E-06 0.809E-04
   -.150E+03 -.124E+03 -.116E+03   0.149E+03 0.121E+03 0.112E+03   0.266E+00 0.296E+01 0.384E+01   -.151E-03 -.309E-04 -.396E-04
   -.109E+03 -.531E+02 -.101E+03   0.113E+03 0.510E+02 0.104E+03   -.405E+01 0.204E+01 -.316E+01   -.863E-04 0.653E-04 0.526E-04
   -.694E+02 -.115E+03 -.139E+03   0.647E+02 0.116E+03 0.142E+03   0.475E+01 -.301E+00 -.292E+01   0.214E-04 0.242E-04 -.313E-04
 -----------------------------------------------------------------------------------------------
   0.252E+01 0.291E+01 0.299E+01   -.355E-11 -.668E-11 -.350E-11   -.253E+01 -.292E+01 -.300E+01   0.402E-02 0.448E-02 0.436E-02


 POSITION                                       TOTAL-FORCE (eV/Angst)
 -----------------------------------------------------------------------------------
      1.20287     -0.60143     -0.60143         0.058787      0.061499      0.038807
      1.20287      1.20287     -2.40573         0.060577      0.037970      0.060973
      1.20287      3.00717     -4.21003         0.047248      0.054088      0.053954
      3.00717     -2.40573     -0.60143         0.054740      0.054457      0.054952
      3.00717     -0.60143     -2.40573         0.037730      0.060658      0.060381
      3.00717      1.20287     -4.21003         0.055293      0.054853      0.054510
      4.81147     -4.21003     -0.60143         0.054839      0.053016      0.055754
      4.81147     -2.40573     -2.40573         0.053832      0.053996      0.047568
      4.81147     -0.60143     -4.21003         0.054554      0.048576      0.052429
      1.20287      1.20287      1.20287        -0.067831     -0.053066     -0.036949
      1.20287      3.00717     -0.60143        -0.066710     -0.036427     -0.052060
      1.20287      4.81147     -2.40573        -0.033209     -0.035836     -0.036425
      3.00717     -0.60143      1.20287        -0.051179     -0.068836     -0.036031
      3.00717      1.20287     -0.60143        -0.059316     -0.061305     -0.061267
      3.00717      3.00717     -2.40573        -0.050406     -0.035022     -0.068242
      4.81147     -2.40573      1.20287        -0.042223     -0.043806     -0.043735
      4.81147     -0.60143     -0.60143        -0.035155     -0.069099     -0.052428
      4.81147      1.20287     -2.40573        -0.035328     -0.052662     -0.069415
     10.18736      4.78216     -0.61563        -0.001963     -0.001580      0.000852
      4.79365      2.98537      2.98120        -0.000726     -0.000528     -0.001196
      2.99129      2.99304      1.18886         0.001166      0.001498      0.000795
      6.59328      8.38102     -0.61310        -0.000842     -0.001469     -0.001367
      6.60198      1.18811      2.98923        -0.001107     -0.000767     -0.001038
      4.79965      1.18462      1.18881         0.000147      0.002052      0.000438
      8.39244      1.17032      4.77722        -0.002988     -0.002993     -0.002690
      8.40796     -0.61874      2.98849        -0.002174     -0.001647     -0.001239
      6.61084     -0.60849      1.19506        -0.001269     -0.000846     -0.000230
     10.18878      1.19230      2.97727        -0.002184      0.000538     -0.001579
      4.79315      4.78707      1.18036        -0.000913     -0.002077     -0.001810
      3.00242      4.80063     -0.60832        -0.000929     -0.002655     -0.001655
      6.59372      2.98491      1.17977         0.000021     -0.000779     -0.000299
      4.79940      2.99329     -0.61961         0.000312      0.001086      0.001510
      8.41465      2.96624      2.97798        -0.001503     -0.001467     -0.001880
      8.40329      1.18332      1.18294        -0.000301     -0.000307     -0.000169
      6.60651      1.19567     -0.60872        -0.002207     -0.001077     -0.001598
      4.78359      8.38785      1.16827        -0.001258     -0.000165     -0.000687
      4.79622      6.59623     -0.62218        -0.000319     -0.000564     -0.001119
      3.00247      6.60890     -2.41701        -0.001419     -0.001054     -0.002351
      6.59241      6.60633      1.16068        -0.001438     -0.000106     -0.002144
      6.60161      4.79432     -0.61761        -0.001221     -0.001514     -0.001495
      4.80598      4.80443     -2.41304        -0.001443     -0.000675     -0.000439
      8.41432      4.78294      1.15884        -0.000769     -0.001782     -0.001856
      8.40287      2.98735     -0.62283        -0.000550      0.000575     -0.000553
      6.61046      2.99936     -2.41305        -0.001308      0.000559     -0.001498
      6.61970      4.80906      3.00127         0.000723     -0.003412     -0.001190
      8.30779      6.63893      4.83526        -0.001149     -0.004106     -0.000812
      8.57607      7.63008      4.44370        -0.000745      0.007636     -0.003894
      8.18845      5.94856      3.96092        -0.004893     -0.003073     -0.001571
      9.11433      6.23555      5.46401         0.002880     -0.004992      0.004557
      7.37388      6.69786      5.40931        -0.005875      0.002637      0.005431
 -----------------------------------------------------------------------------------
    total drift:                               -0.004889     -0.009830     -0.010843


--------------------------------------------------------------------------------------------------------



  FREE ENERGIE OF THE ION-ELECTRON SYSTEM (eV)
  ---------------------------------------------------
  free  energy   TOTEN  =       -85.79284510 eV

  energy  without entropy=      -85.77574095  energy(sigma->0) =      -85.78714372

 d Force = 0.2559243E-04[ 0.162E-04, 0.350E-04]  d Energy = 0.2625617E-04-0.664E-06
 d Force =-0.4834441E+01[-0.483E+01,-0.483E+01]  d Ewald  =-0.4834441E+01 0.117E-06


--------------------------------------------------------------------------------------------------------


    POTLOK:  cpu time    3.2949: real time    3.2942


--------------------------------------------------------------------------------------------------------


 stress matrix after NEB project (eV)
    -12.04322      3.35508      3.40587
      3.35508    -11.96682      3.48939
      3.40587      3.48939    -11.92995
  FORCES: max atom, RMS     0.008603    0.002888
  FORCE total and by dimension    0.020425    0.007636
  Stress total and by dimension   22.374814   12.043223
 Conjugate gradient step on ions:
 trial-energy change:   -0.000026  1 .order   -0.000026   -0.000035   -0.000016
  (g-gl).g = 0.118E-04      g.g   = 0.122E-04  gl.gl    = 0.151E-04
 g(Force)  = 0.122E-04   g(Stress)= 0.000E+00 ortho     = 0.334E-06
 gamma     =   0.78450
 trial     =   2.81524
 opt step  =   4.62282  (harmonic =   5.25382) maximal distance =0.00183302
 next E    =   -85.792850   (d E  =  -0.00003)


--------------------------------------------------------------------------------------------------------



 reached required accuracy - stopping structural energy minimisation
     LOOP+:  cpu time  764.0901: real time  765.1833
    4ORBIT:  cpu time    0.0000: real time    0.0000

 total amount of memory used by VASP on root node   292243. kBytes
========================================================================

   base      :      30000. kBytes
   nonlr-proj:      15881. kBytes
   fftplans  :       5374. kBytes
   grid      :      10087. kBytes
   one-center:        202. kBytes
   wavefun   :     230699. kBytes



 General timing and accounting informations for this job:
 ========================================================

                  Total CPU time used (sec):    67407.477
                            User time (sec):    64479.835
                          System time (sec):     2927.641
                         Elapsed time (sec):    67509.274

                   Maximum memory used (kb):      538580.
                   Average memory used (kb):           0.

                          Minor page faults:      7612532
                          Major page faults:            0
                 Voluntary context switches:      3128435
