 vasp.5.3.2 13Sep12 (build Mar 19 2013 10:46:17) complex

 executed on             LinuxIFC date 2013.12.05  17:01:31
 serial version


--------------------------------------------------------------------------------------------------------


 INCAR:
 POTCAR:  PAW_PBE Ac 06Sep2000
 POTCAR:  PAW_PBE Ag 06Sep2000
 POTCAR:  PAW_PBE Ac 06Sep2000
   VRHFIN =Ac:
   LEXCH  = PE
   EATOM  =   812.3392 eV,   59.7052 Ry

   TITEL  = PAW_PBE Ac 06Sep2000
   LULTRA =        F    use ultrasoft PP ?
   IUNSCR =        1    unscreen: 0-lin 1-nonlin 2-no
   RPACOR =    2.000    partial core radius
   POMASS =  227.028; ZVAL   =   11.000    mass and valenz
   RCORE  =    2.900    outmost cutoff radius
   RWIGS  =    2.900; RWIGS  =    1.535    wigner-seitz radius (au A)
   ENMAX  =  172.237; ENMIN  =  129.178 eV
   RCLOC  =    2.010    cutoff for local pot
   LCOR   =        T    correct aug charges
   LPAW   =        T    paw PP
   EAUG   =  543.281
   DEXC   =    -.001
   RMAX   =    3.513    core radius for proj-oper
   RAUG   =    1.300    factor for augmentation sphere
   RDEP   =    2.904    radius for radial grids
   QCUT   =   -3.558; QGAM   =    7.116    optimization parameters

   Description
     l     E      TYP  RCUT    TYP  RCUT
     0   .000     23  2.880
     0   .000     23  2.880
     1   .000     23  2.900
     1   .000     23  2.900
     2   .000     23  2.900
     2   .000     23  2.900
     3   .000     23  2.900
     3   .100     23  2.900
  local pseudopotential read in
  partial core-charges read in
  atomic valenz-charges read in
  non local Contribution for L=           0  read in
    real space projection operators read in
  non local Contribution for L=           0  read in
    real space projection operators read in
  non local Contribution for L=           1  read in
    real space projection operators read in
  non local Contribution for L=           1  read in
    real space projection operators read in
  non local Contribution for L=           2  read in
    real space projection operators read in
  non local Contribution for L=           2  read in
    real space projection operators read in
  non local Contribution for L=           3  read in
    real space projection operators read in
  non local Contribution for L=           3  read in
    real space projection operators read in
    PAW grid and wavefunctions read in

   number of l-projection  operators is LMAX  =           8
   number of lm-projection operators is LMMAX =          32

 POTCAR:  PAW_PBE Ag 06Sep2000
   VRHFIN =Ag : s1 d10
   LEXCH  = PE
   EATOM  =  1037.4134 eV,   76.2477 Ry

   TITEL  = PAW_PBE Ag 06Sep2000
   LULTRA =        F    use ultrasoft PP ?
   IUNSCR =        1    unscreen: 0-lin 1-nonlin 2-no
   RPACOR =    2.000    partial core radius
   POMASS =  107.868; ZVAL   =   11.000    mass and valenz
   RCORE  =    2.400    outmost cutoff radius
   RWIGS  =    2.840; RWIGS  =    1.503    wigner-seitz radius (au A)
   ENMAX  =  249.846; ENMIN  =  187.385 eV
   RCLOC  =    1.962    cutoff for local pot
   LCOR   =        T    correct aug charges
   LPAW   =        T    paw PP
   EAUG   =  412.496
   DEXC   =    -.047
   RMAX   =    2.917    core radius for proj-oper
   RAUG   =    1.300    factor for augmentation sphere
   RDEP   =    2.416    radius for radial grids
   QCUT   =   -4.285; QGAM   =    8.570    optimization parameters

   Description
     l     E      TYP  RCUT    TYP  RCUT
     2   .000     23  2.400
     2   .000     23  2.400
     0   .000     23  2.400
     0   .000     23  2.400
     1  -.200     23  2.400
     1  1.500     23  2.400
     3   .000      7   .000
  local pseudopotential read in
  partial core-charges read in
  atomic valenz-charges read in
  non local Contribution for L=           2  read in
    real space projection operators read in
  non local Contribution for L=           2  read in
    real space projection operators read in
  non local Contribution for L=           0  read in
    real space projection operators read in
  non local Contribution for L=           0  read in
    real space projection operators read in
  non local Contribution for L=           1  read in
    real space projection operators read in
  non local Contribution for L=           1  read in
    real space projection operators read in
    PAW grid and wavefunctions read in

   number of l-projection  operators is LMAX  =           6
   number of lm-projection operators is LMMAX =          18

PAW_PBE Ac 06Sep2000                    :
 energy of atom  1       EATOM= -812.3392
 kinetic energy error for atom=    0.0062 (will be added to EATOM!!)
PAW_PBE Ag 06Sep2000                    :
 energy of atom  2       EATOM=-1037.4134
 kinetic energy error for atom=    0.0689 (will be added to EATOM!!)


 POSCAR: Ac Ag
  positions in direct lattice
  No initial velocities read in
 exchange correlation table for  LEXCH =        8
   RHO(1)=    0.500       N(1)  =     2000
   RHO(2)=  100.500       N(2)  =     4000



--------------------------------------------------------------------------------------------------------


 ion  position               nearest neighbor table
   1  0.000  0.000  0.000-   2 3.24   2 3.24   2 3.24   2 3.24   2 3.24   2 3.24
   2  0.500  0.500  0.500-   1 3.24   1 3.24   1 3.24   1 3.24   1 3.24   1 3.24

  LATTYP: Found a face centered cubic cell.
 ALAT       =     6.4793080000

  Lattice vectors:

 A1 = (   0.0000000000,   3.2396540000,   3.2396540000)
 A2 = (   3.2396540000,   0.0000000000,   3.2396540000)
 A3 = (   3.2396540000,   3.2396540000,   0.0000000000)


Analysis of symmetry for initial positions (statically):
=====================================================================
 Subroutine PRICEL returns:
 Original cell was already a primitive cell.


 Routine SETGRP: Setting up the symmetry group for a
 face centered cubic supercell.


 Subroutine GETGRP returns: Found 48 space group operations
 (whereof 48 operations were pure point group operations)
 out of a pool of 48 trial point group operations.


The static configuration has the point symmetry O_h .


Analysis of symmetry for dynamics (positions and initial velocities):
=====================================================================
 Subroutine PRICEL returns:
 Original cell was already a primitive cell.


 Routine SETGRP: Setting up the symmetry group for a
 face centered cubic supercell.


 Subroutine GETGRP returns: Found 48 space group operations
 (whereof 48 operations were pure point group operations)
 out of a pool of 48 trial point group operations.


The dynamic configuration has the point symmetry O_h .


Analysis of magnetic symmetry:
=====================================================================

 Subroutine MAGSYM returns: Found 48 space group operations
 (whereof 48 operations were pure point group operations)
 out of a pool of 48 trial space group operations
 (whereof 48 operations were pure point group operations)
 and found also     1 'primitive' translations


The magnetic configuration has the point symmetry O_h .


 KPOINTS: KPOINTS

Automatic generation of k-mesh.
Space group operators:
 irot       det(A)        alpha          n_x          n_y          n_z        tau_x        tau_y        tau_z
    1     1.000000     0.000000     1.000000     0.000000     0.000000     0.000000     0.000000     0.000000
    2    -1.000000     0.000000     1.000000     0.000000     0.000000     0.000000     0.000000     0.000000
    3     1.000000   120.000000    -0.577350    -0.577350    -0.577350     0.000000     0.000000     0.000000
    4    -1.000000   120.000000    -0.577350    -0.577350    -0.577350     0.000000     0.000000     0.000000
    5     1.000000   120.000000     0.577350     0.577350     0.577350     0.000000     0.000000     0.000000
    6    -1.000000   120.000000     0.577350     0.577350     0.577350     0.000000     0.000000     0.000000
    7     1.000000    90.000000     0.000000     0.000000    -1.000000     0.000000     0.000000     0.000000
    8    -1.000000    90.000000     0.000000     0.000000    -1.000000     0.000000     0.000000     0.000000
    9     1.000000   180.000000     0.000000     0.707107     0.707107     0.000000     0.000000     0.000000
   10    -1.000000   180.000000     0.000000     0.707107     0.707107     0.000000     0.000000     0.000000
   11     1.000000    90.000000     0.000000     1.000000     0.000000     0.000000     0.000000     0.000000
   12    -1.000000    90.000000     0.000000     1.000000     0.000000     0.000000     0.000000     0.000000
   13     1.000000   180.000000     0.000000     0.000000     1.000000     0.000000     0.000000     0.000000
   14    -1.000000   180.000000     0.000000     0.000000     1.000000     0.000000     0.000000     0.000000
   15     1.000000   120.000000    -0.577350     0.577350     0.577350     0.000000     0.000000     0.000000
   16    -1.000000   120.000000    -0.577350     0.577350     0.577350     0.000000     0.000000     0.000000
   17     1.000000   120.000000    -0.577350     0.577350    -0.577350     0.000000     0.000000     0.000000
   18    -1.000000   120.000000    -0.577350     0.577350    -0.577350     0.000000     0.000000     0.000000
   19     1.000000    90.000000     0.000000     0.000000     1.000000     0.000000     0.000000     0.000000
   20    -1.000000    90.000000     0.000000     0.000000     1.000000     0.000000     0.000000     0.000000
   21     1.000000    90.000000    -1.000000     0.000000     0.000000     0.000000     0.000000     0.000000
   22    -1.000000    90.000000    -1.000000     0.000000     0.000000     0.000000     0.000000     0.000000
   23     1.000000   180.000000     0.707107     0.000000     0.707107     0.000000     0.000000     0.000000
   24    -1.000000   180.000000     0.707107     0.000000     0.707107     0.000000     0.000000     0.000000
   25     1.000000   120.000000     0.577350    -0.577350     0.577350     0.000000     0.000000     0.000000
   26    -1.000000   120.000000     0.577350    -0.577350     0.577350     0.000000     0.000000     0.000000
   27     1.000000   120.000000    -0.577350    -0.577350     0.577350     0.000000     0.000000     0.000000
   28    -1.000000   120.000000    -0.577350    -0.577350     0.577350     0.000000     0.000000     0.000000
   29     1.000000   180.000000     1.000000     0.000000     0.000000     0.000000     0.000000     0.000000
   30    -1.000000   180.000000     1.000000     0.000000     0.000000     0.000000     0.000000     0.000000
   31     1.000000    90.000000     0.000000    -1.000000     0.000000     0.000000     0.000000     0.000000
   32    -1.000000    90.000000     0.000000    -1.000000     0.000000     0.000000     0.000000     0.000000
   33     1.000000   180.000000     0.707107     0.707107     0.000000     0.000000     0.000000     0.000000
   34    -1.000000   180.000000     0.707107     0.707107     0.000000     0.000000     0.000000     0.000000
   35     1.000000    90.000000     1.000000     0.000000     0.000000     0.000000     0.000000     0.000000
   36    -1.000000    90.000000     1.000000     0.000000     0.000000     0.000000     0.000000     0.000000
   37     1.000000   120.000000     0.577350    -0.577350    -0.577350     0.000000     0.000000     0.000000
   38    -1.000000   120.000000     0.577350    -0.577350    -0.577350     0.000000     0.000000     0.000000
   39     1.000000   180.000000     0.000000     1.000000     0.000000     0.000000     0.000000     0.000000
   40    -1.000000   180.000000     0.000000     1.000000     0.000000     0.000000     0.000000     0.000000
   41     1.000000   120.000000     0.577350     0.577350    -0.577350     0.000000     0.000000     0.000000
   42    -1.000000   120.000000     0.577350     0.577350    -0.577350     0.000000     0.000000     0.000000
   43     1.000000   180.000000     0.000000    -0.707107     0.707107     0.000000     0.000000     0.000000
   44    -1.000000   180.000000     0.000000    -0.707107     0.707107     0.000000     0.000000     0.000000
   45     1.000000   180.000000     0.707107    -0.707107     0.000000     0.000000     0.000000     0.000000
   46    -1.000000   180.000000     0.707107    -0.707107     0.000000     0.000000     0.000000     0.000000
   47     1.000000   180.000000     0.707107     0.000000    -0.707107     0.000000     0.000000     0.000000
   48    -1.000000   180.000000     0.707107     0.000000    -0.707107     0.000000     0.000000     0.000000

 Subroutine IBZKPT returns following result:
 ===========================================

 Found    145 irreducible k-points:

 Following reciprocal coordinates:
            Coordinates               Weight
  0.000000  0.000000  0.000000      1.000000
  0.062500  0.000000  0.000000      8.000000
  0.125000  0.000000  0.000000      8.000000
  0.187500  0.000000  0.000000      8.000000
  0.250000  0.000000  0.000000      8.000000
  0.312500  0.000000  0.000000      8.000000
  0.375000  0.000000  0.000000      8.000000
  0.437500  0.000000  0.000000      8.000000
  0.500000  0.000000  0.000000      4.000000
  0.062500  0.062500  0.000000      6.000000
  0.125000  0.062500  0.000000     24.000000
  0.187500  0.062500  0.000000     24.000000
  0.250000  0.062500  0.000000     24.000000
  0.312500  0.062500  0.000000     24.000000
  0.375000  0.062500  0.000000     24.000000
  0.437500  0.062500  0.000000     24.000000
  0.500000  0.062500  0.000000     24.000000
 -0.437500  0.062500  0.000000     24.000000
 -0.375000  0.062500  0.000000     24.000000
 -0.312500  0.062500  0.000000     24.000000
 -0.250000  0.062500  0.000000     24.000000
 -0.187500  0.062500  0.000000     24.000000
 -0.125000  0.062500  0.000000     24.000000
 -0.062500  0.062500  0.000000     12.000000
  0.125000  0.125000  0.000000      6.000000
  0.187500  0.125000  0.000000     24.000000
  0.250000  0.125000  0.000000     24.000000
  0.312500  0.125000  0.000000     24.000000
  0.375000  0.125000  0.000000     24.000000
  0.437500  0.125000  0.000000     24.000000
  0.500000  0.125000  0.000000     24.000000
 -0.437500  0.125000  0.000000     24.000000
 -0.375000  0.125000  0.000000     24.000000
 -0.312500  0.125000  0.000000     24.000000
 -0.250000  0.125000  0.000000     24.000000
 -0.187500  0.125000  0.000000     24.000000
 -0.125000  0.125000  0.000000     12.000000
  0.187500  0.187500  0.000000      6.000000
  0.250000  0.187500  0.000000     24.000000
  0.312500  0.187500  0.000000     24.000000
  0.375000  0.187500  0.000000     24.000000
  0.437500  0.187500  0.000000     24.000000
  0.500000  0.187500  0.000000     24.000000
 -0.437500  0.187500  0.000000     24.000000
 -0.375000  0.187500  0.000000     24.000000
 -0.312500  0.187500  0.000000     24.000000
 -0.250000  0.187500  0.000000     24.000000
 -0.187500  0.187500  0.000000     12.000000
  0.250000  0.250000  0.000000      6.000000
  0.312500  0.250000  0.000000     24.000000
  0.375000  0.250000  0.000000     24.000000
  0.437500  0.250000  0.000000     24.000000
  0.500000  0.250000  0.000000     24.000000
 -0.437500  0.250000  0.000000     24.000000
 -0.375000  0.250000  0.000000     24.000000
 -0.312500  0.250000  0.000000     24.000000
 -0.250000  0.250000  0.000000     12.000000
  0.312500  0.312500  0.000000      6.000000
  0.375000  0.312500  0.000000     24.000000
  0.437500  0.312500  0.000000     24.000000
  0.500000  0.312500  0.000000     24.000000
 -0.437500  0.312500  0.000000     24.000000
 -0.375000  0.312500  0.000000     24.000000
 -0.312500  0.312500  0.000000     12.000000
  0.375000  0.375000  0.000000      6.000000
  0.437500  0.375000  0.000000     24.000000
  0.500000  0.375000  0.000000     24.000000
 -0.437500  0.375000  0.000000     24.000000
 -0.375000  0.375000  0.000000     12.000000
  0.437500  0.437500  0.000000      6.000000
  0.500000  0.437500  0.000000     24.000000
 -0.437500  0.437500  0.000000     12.000000
  0.500000  0.500000  0.000000      3.000000
  0.187500  0.125000  0.062500     24.000000
  0.250000  0.125000  0.062500     48.000000
  0.312500  0.125000  0.062500     48.000000
  0.375000  0.125000  0.062500     48.000000
  0.437500  0.125000  0.062500     48.000000
  0.500000  0.125000  0.062500     48.000000
 -0.437500  0.125000  0.062500     24.000000
  0.250000  0.187500  0.062500     24.000000
  0.312500  0.187500  0.062500     48.000000
  0.375000  0.187500  0.062500     48.000000
  0.437500  0.187500  0.062500     48.000000
  0.500000  0.187500  0.062500     48.000000
 -0.437500  0.187500  0.062500     48.000000
 -0.375000  0.187500  0.062500     48.000000
 -0.312500  0.187500  0.062500     48.000000
 -0.250000  0.187500  0.062500     48.000000
 -0.187500  0.187500  0.062500     48.000000
 -0.125000  0.187500  0.062500     24.000000
  0.312500  0.250000  0.062500     24.000000
  0.375000  0.250000  0.062500     48.000000
  0.437500  0.250000  0.062500     48.000000
  0.500000  0.250000  0.062500     48.000000
 -0.437500  0.250000  0.062500     48.000000
 -0.375000  0.250000  0.062500     48.000000
 -0.312500  0.250000  0.062500     48.000000
 -0.250000  0.250000  0.062500     48.000000
 -0.187500  0.250000  0.062500     24.000000
  0.375000  0.312500  0.062500     24.000000
  0.437500  0.312500  0.062500     48.000000
  0.500000  0.312500  0.062500     48.000000
 -0.437500  0.312500  0.062500     48.000000
 -0.375000  0.312500  0.062500     48.000000
 -0.312500  0.312500  0.062500     48.000000
 -0.250000  0.312500  0.062500     24.000000
  0.437500  0.375000  0.062500     24.000000
  0.500000  0.375000  0.062500     48.000000
 -0.437500  0.375000  0.062500     48.000000
 -0.375000  0.375000  0.062500     48.000000
 -0.312500  0.375000  0.062500     24.000000
  0.500000  0.437500  0.062500     24.000000
 -0.437500  0.437500  0.062500     48.000000
 -0.375000  0.437500  0.062500     24.000000
 -0.437500  0.500000  0.062500     12.000000
  0.375000  0.250000  0.125000     24.000000
  0.437500  0.250000  0.125000     48.000000
  0.500000  0.250000  0.125000     48.000000
 -0.437500  0.250000  0.125000     48.000000
 -0.375000  0.250000  0.125000     24.000000
  0.437500  0.312500  0.125000     24.000000
  0.500000  0.312500  0.125000     48.000000
 -0.437500  0.312500  0.125000     48.000000
 -0.375000  0.312500  0.125000     48.000000
 -0.312500  0.312500  0.125000     48.000000
 -0.250000  0.312500  0.125000     48.000000
 -0.187500  0.312500  0.125000     24.000000
  0.500000  0.375000  0.125000     24.000000
 -0.437500  0.375000  0.125000     48.000000
 -0.375000  0.375000  0.125000     48.000000
 -0.312500  0.375000  0.125000     48.000000
 -0.250000  0.375000  0.125000     24.000000
 -0.437500  0.437500  0.125000     24.000000
 -0.375000  0.437500  0.125000     48.000000
 -0.312500  0.437500  0.125000     24.000000
 -0.375000  0.500000  0.125000     12.000000
 -0.437500  0.375000  0.187500     24.000000
 -0.375000  0.375000  0.187500     48.000000
 -0.312500  0.375000  0.187500     24.000000
 -0.375000  0.437500  0.187500     24.000000
 -0.312500  0.437500  0.187500     48.000000
 -0.250000  0.437500  0.187500     24.000000
 -0.312500  0.500000  0.187500     12.000000
 -0.250000  0.500000  0.250000      6.000000

 Following cartesian coordinates:
            Coordinates               Weight
  0.000000  0.000000  0.000000      1.000000
 -0.009646  0.009646  0.009646      8.000000
 -0.019292  0.019292  0.019292      8.000000
 -0.028938  0.028938  0.028938      8.000000
 -0.038584  0.038584  0.038584      8.000000
 -0.048230  0.048230  0.048230      8.000000
 -0.057877  0.057877  0.057877      8.000000
 -0.067523  0.067523  0.067523      8.000000
 -0.077169  0.077169  0.077169      4.000000
  0.000000  0.000000  0.019292      6.000000
 -0.009646  0.009646  0.028938     24.000000
 -0.019292  0.019292  0.038584     24.000000
 -0.028938  0.028938  0.048230     24.000000
 -0.038584  0.038584  0.057877     24.000000
 -0.048230  0.048230  0.067523     24.000000
 -0.057877  0.057877  0.077169     24.000000
 -0.067523  0.067523  0.086815     24.000000
  0.077169 -0.077169 -0.057877     24.000000
  0.067523 -0.067523 -0.048230     24.000000
  0.057877 -0.057877 -0.038584     24.000000
  0.048230 -0.048230 -0.028938     24.000000
  0.038584 -0.038584 -0.019292     24.000000
  0.028938 -0.028938 -0.009646     24.000000
  0.019292 -0.019292  0.000000     12.000000
  0.000000  0.000000  0.038584      6.000000
 -0.009646  0.009646  0.048230     24.000000
 -0.019292  0.019292  0.057877     24.000000
 -0.028938  0.028938  0.067523     24.000000
 -0.038584  0.038584  0.077169     24.000000
 -0.048230  0.048230  0.086815     24.000000
 -0.057877  0.057877  0.096461     24.000000
  0.086815 -0.086815 -0.048230     24.000000
  0.077169 -0.077169 -0.038584     24.000000
  0.067523 -0.067523 -0.028938     24.000000
  0.057877 -0.057877 -0.019292     24.000000
  0.048230 -0.048230 -0.009646     24.000000
  0.038584 -0.038584  0.000000     12.000000
  0.000000  0.000000  0.057877      6.000000
 -0.009646  0.009646  0.067523     24.000000
 -0.019292  0.019292  0.077169     24.000000
 -0.028938  0.028938  0.086815     24.000000
 -0.038584  0.038584  0.096461     24.000000
 -0.048230  0.048230  0.106107     24.000000
  0.096461 -0.096461 -0.038584     24.000000
  0.086815 -0.086815 -0.028938     24.000000
  0.077169 -0.077169 -0.019292     24.000000
  0.067523 -0.067523 -0.009646     24.000000
  0.057877 -0.057877  0.000000     12.000000
  0.000000  0.000000  0.077169      6.000000
 -0.009646  0.009646  0.086815     24.000000
 -0.019292  0.019292  0.096461     24.000000
 -0.028938  0.028938  0.106107     24.000000
 -0.038584  0.038584  0.115753     24.000000
  0.106107 -0.106107 -0.028938     24.000000
  0.096461 -0.096461 -0.019292     24.000000
  0.086815 -0.086815 -0.009646     24.000000
  0.077169 -0.077169  0.000000     12.000000
  0.000000  0.000000  0.096461      6.000000
 -0.009646  0.009646  0.106107     24.000000
 -0.019292  0.019292  0.115753     24.000000
 -0.028938  0.028938  0.125399     24.000000
  0.115753 -0.115753 -0.019292     24.000000
  0.106107 -0.106107 -0.009646     24.000000
  0.096461 -0.096461  0.000000     12.000000
  0.000000  0.000000  0.115753      6.000000
 -0.009646  0.009646  0.125399     24.000000
 -0.019292  0.019292  0.135045     24.000000
  0.125399 -0.125399 -0.009646     24.000000
  0.115753 -0.115753  0.000000     12.000000
  0.000000  0.000000  0.135045      6.000000
 -0.009646  0.009646  0.144691     24.000000
  0.135045 -0.135045  0.000000     12.000000
  0.000000  0.000000  0.154337      3.000000
  0.000000  0.019292  0.038584     24.000000
 -0.009646  0.028938  0.048230     48.000000
 -0.019292  0.038584  0.057877     48.000000
 -0.028938  0.048230  0.067523     48.000000
 -0.038584  0.057877  0.077169     48.000000
 -0.048230  0.067523  0.086815     48.000000
  0.096461 -0.077169 -0.057877     24.000000
  0.000000  0.019292  0.057877     24.000000
 -0.009646  0.028938  0.067523     48.000000
 -0.019292  0.038584  0.077169     48.000000
 -0.028938  0.048230  0.086815     48.000000
 -0.038584  0.057877  0.096461     48.000000
  0.106107 -0.086815 -0.048230     48.000000
  0.096461 -0.077169 -0.038584     48.000000
  0.086815 -0.067523 -0.028938     48.000000
  0.077169 -0.057877 -0.019292     48.000000
  0.067523 -0.048230 -0.009646     48.000000
  0.057877 -0.038584  0.000000     24.000000
  0.000000  0.019292  0.077169     24.000000
 -0.009646  0.028938  0.086815     48.000000
 -0.019292  0.038584  0.096461     48.000000
 -0.028938  0.048230  0.106107     48.000000
  0.115753 -0.096461 -0.038584     48.000000
  0.106107 -0.086815 -0.028938     48.000000
  0.096461 -0.077169 -0.019292     48.000000
  0.086815 -0.067523 -0.009646     48.000000
  0.077169 -0.057877  0.000000     24.000000
  0.000000  0.019292  0.096461     24.000000
 -0.009646  0.028938  0.106107     48.000000
 -0.019292  0.038584  0.115753     48.000000
  0.125399 -0.106107 -0.028938     48.000000
  0.115753 -0.096461 -0.019292     48.000000
  0.106107 -0.086815 -0.009646     48.000000
  0.096461 -0.077169  0.000000     24.000000
  0.000000  0.019292  0.115753     24.000000
 -0.009646  0.028938  0.125399     48.000000
  0.135045 -0.115753 -0.019292     48.000000
  0.125399 -0.106107 -0.009646     48.000000
  0.115753 -0.096461  0.000000     24.000000
  0.000000  0.019292  0.135045     24.000000
  0.144691 -0.125399 -0.009646     48.000000
  0.135045 -0.115753  0.000000     24.000000
  0.154337 -0.135045  0.000000     12.000000
  0.000000  0.038584  0.077169     24.000000
 -0.009646  0.048230  0.086815     48.000000
 -0.019292  0.057877  0.096461     48.000000
  0.125399 -0.086815 -0.048230     48.000000
  0.115753 -0.077169 -0.038584     24.000000
  0.000000  0.038584  0.096461     24.000000
 -0.009646  0.048230  0.106107     48.000000
  0.135045 -0.096461 -0.038584     48.000000
  0.125399 -0.086815 -0.028938     48.000000
  0.115753 -0.077169 -0.019292     48.000000
  0.106107 -0.067523 -0.009646     48.000000
  0.096461 -0.057877  0.000000     24.000000
  0.000000  0.038584  0.115753     24.000000
  0.144691 -0.106107 -0.028938     48.000000
  0.135045 -0.096461 -0.019292     48.000000
  0.125399 -0.086815 -0.009646     48.000000
  0.115753 -0.077169  0.000000     24.000000
  0.154337 -0.115753 -0.019292     24.000000
  0.144691 -0.106107 -0.009646     48.000000
  0.135045 -0.096461  0.000000     24.000000
  0.154337 -0.115753  0.000000     12.000000
  0.154337 -0.096461 -0.038584     24.000000
  0.144691 -0.086815 -0.028938     48.000000
  0.135045 -0.077169 -0.019292     24.000000
  0.154337 -0.096461 -0.019292     24.000000
  0.144691 -0.086815 -0.009646     48.000000
  0.135045 -0.077169  0.000000     24.000000
  0.154337 -0.096461  0.000000     12.000000
  0.154337 -0.077169  0.000000      6.000000



--------------------------------------------------------------------------------------------------------




 Dimension of arrays:
   k-points           NKPTS =    145   k-points in BZ     NKDIM =    145   number of bands    NBANDS=     18
   number of dos      NEDOS =    301   number of ions     NIONS =      2
   non local maximal  LDIM  =      8   non local SUM 2l+1 LMDIM =     32
   total plane-waves  NPLWV =  13824
   max r-space proj   IRMAX =      1   max aug-charges    IRDMAX=  12024
   dimension x,y,z NGX =    24 NGY =   24 NGZ =   24
   dimension x,y,z NGXF=    48 NGYF=   48 NGZF=   48
   support grid    NGXF=    48 NGYF=   48 NGZF=   48
   ions per type =               1   1
 NGX,Y,Z   is equivalent  to a cutoff of   8.71,  8.71,  8.71 a.u.
 NGXF,Y,Z  is equivalent  to a cutoff of  17.42, 17.42, 17.42 a.u.


 I would recommend the setting:
   dimension x,y,z NGX =    24 NGY =   24 NGZ =   24
 SYSTEM =  unknown system
 POSCAR =  Ac Ag

 Startparameter for this run:
   NWRITE =      2    write-flag & timer
   PREC   = acc       normal or accurate (medium, high low for compatibility)
   ISTART =      0    job   : 0-new  1-cont  2-samecut
   ICHARG =      2    charge: 1-file 2-atom 10-const
   ISPIN  =      2    spin polarized calculation?
   LNONCOLLINEAR =      F non collinear calculations
   LSORBIT =      F    spin-orbit coupling
   INIWAV =      1    electr: 0-lowe 1-rand  2-diag
   LASPH  =      F    aspherical Exc in radial PAW
   METAGGA=      F    non-selfconsistent MetaGGA calc.

 Electronic Relaxation 1
   ENCUT  =  249.8 eV  18.36 Ry    4.28 a.u.   5.90  5.90  5.90*2*pi/ulx,y,z
   ENINI  =  249.8     initial cutoff
   ENAUG  =  543.3 eV  augmentation charge cutoff
   NELM   =     60;   NELMIN=  5; NELMDL= -5     # of ELM steps
   EDIFF  = 0.1E-03   stopping-criterion for ELM
   LREAL  =      F    real-space projection
   NLSPLINE    = F    spline interpolate recip. space projectors
   LCOMPAT=      F    compatible to vasp.4.4
   GGA_COMPAT  = T    GGA compatible to vasp.4.4-vasp.4.6
   LMAXPAW     = -100 max onsite density
   LMAXMIX     =    2 max onsite mixed and CHGCAR
   VOSKOWN=      0    Vosko Wilk Nusair interpolation
   ROPT   =    0.00000   0.00000
 Ionic relaxation
   EDIFFG = 0.1E-02   stopping-criterion for IOM
   NSW    =     60    number of steps for IOM
   NBLOCK =      1;   KBLOCK =     60    inner block; outer block
   IBRION =      2    ionic relax: 0-MD 1-quasi-New 2-CG
   NFREE  =      1    steps in history (QN), initial steepest desc. (CG)
   ISIF   =      3    stress and relaxation
   IWAVPR =     11    prediction:  0-non 1-charg 2-wave 3-comb
   ISYM   =      2    0-nonsym 1-usesym 2-fastsym
   LCORR  =      T    Harris-Foulkes like correction to forces

   POTIM  = 0.5000    time-step for ionic-motion
   TEIN   =    0.0    initial temperature
   TEBEG  =    0.0;   TEEND  =   0.0 temperature during run
   SMASS  =  -3.00    Nose mass-parameter (am)
   estimated Nose-frequenzy (Omega)   =  0.10E-29 period in steps =****** mass=  -0.480E-27a.u.
   SCALEE = 1.0000    scale energy and forces
   NPACO  =    256;   APACO  = 16.0  distance and # of slots for P.C.
   PSTRESS=    0.0 pullay stress

  Mass of Ions in am
   POMASS = 227.03107.87
  Ionic Valenz
   ZVAL   =  11.00 11.00
  Atomic Wigner-Seitz radii
   RWIGS  =  -1.00 -1.00
  virtual crystal weights
   VCA    =   1.00  1.00
   NELECT =      22.0000    total number of electrons
   NUPDOWN=      -1.0000    fix difference up-down

 DOS related values:
   EMIN   =  10.00;   EMAX   =-10.00  energy-range for DOS
   EFERMI =   0.00
   ISMEAR =     1;   SIGMA  =   0.20  broadening in eV -4-tet -1-fermi 0-gaus

 Electronic relaxation 2 (details)
   IALGO  =     68    algorithm
   LDIAG  =      T    sub-space diagonalisation (order eigenvalues)
   LSUBROT=      T    optimize rotation matrix (better conditioning)
   TURBO    =      0    0=normal 1=particle mesh
   IRESTART =      0    0=no restart 2=restart with 2 vectors
   NREBOOT  =      0    no. of reboots
   NMIN     =      0    reboot dimension
   EREF     =   0.00    reference energy to select bands
   IMIX   =      4    mixing-type and parameters
     AMIX     =   0.40;   BMIX     =  1.00
     AMIX_MAG =   1.60;   BMIX_MAG =  1.00
     AMIN     =   0.10
     WC   =   100.;   INIMIX=   1;  MIXPRE=   1;  MAXMIX= -45

 Intra band minimization:
   WEIMIN = 0.0010     energy-eigenvalue tresh-hold
   EBREAK =  0.14E-05  absolut break condition
   DEPER  =   0.30     relativ break condition

   TIME   =   0.40     timestep for ELM

  volume/ion in A,a.u.               =      34.00       229.45
  Fermi-wavevector in a.u.,A,eV,Ry     =   1.123847  2.123762 17.184587  1.263032
  Thomas-Fermi vector in A             =   2.260515

 Write flags
   LWAVE  =      F    write WAVECAR
   LCHARG =      T    write CHGCAR
   LVTOT  =      F    write LOCPOT, total local potential
   LVHAR  =      F    write LOCPOT, Hartree potential only
   LELF   =      F    write electronic localiz. function (ELF)
   LORBIT =     11    0 simple, 1 ext, 2 COOP (PROOUT)


 Dipole corrections
   LMONO  =      F    monopole corrections only (constant potential shift)
   LDIPOL =      F    correct potential (dipole corrections)
   IDIPOL =      0    1-x, 2-y, 3-z, 4-all directions
   EPSILON=  1.0000000 bulk dielectric constant

 Exchange correlation treatment:
   GGA     =    --    GGA type
   LEXCH   =     8    internal setting for exchange type
   VOSKOWN=      0    Vosko Wilk Nusair interpolation
   LHFCALC =     F    Hartree Fock is set to
   LHFONE  =     F    Hartree Fock one center treatment
   AEXX    =    0.0000 exact exchange contribution

 Linear response parameters
   LEPSILON=     F    determine dielectric tensor
   LRPA    =     F    only Hartree local field effects (RPA)
   LNABLA  =     F    use nabla operator in PAW spheres
   LVEL    =     F    velocity operator in full k-point grid
   LINTERFAST=   F  fast interpolation
   KINTER  =     0    interpolate to denser k-point grid
   CSHIFT  =0.1000    complex shift for real part using Kramers Kronig
   OMEGAMAX=  -1.0    maximum frequency
   DEG_THRESHOLD= 0.2000000E-02 threshold for treating states as degnerate
   RTIME   =    0.100 relaxation time in fs

 Orbital magnetization related:
   ORBITALMAG=     F  switch on orbital magnetization
   LCHIMAG   =     F  perturbation theory with respect to B field
   DQ        =  0.001000  dq finite difference perturbation B field



--------------------------------------------------------------------------------------------------------


 conjugate gradient relaxation of ions
 charge density and potential will be updated during run
 spin polarized calculation
 RMM-DIIS sequential band-by-band and
  variant of blocked Davidson during initial phase
 perform sub-space diagonalisation
    before iterative eigenvector-optimisation
 modified Broyden-mixing scheme, WC =      100.0
 initial mixing is a Kerker type mixing with AMIX =  0.4000 and BMIX =      1.0000
 Hartree-type preconditioning will be used
 using additional bands            7
 reciprocal scheme for non local part
 use partial core corrections
 calculate Harris-corrections to forces
   (improved forces if not selfconsistent)
 use gradient corrections
 use of overlap-Matrix (Vanderbilt PP)
 Methfessel and Paxton  Order N= 1 SIGMA  =   0.20


--------------------------------------------------------------------------------------------------------


  energy-cutoff  :      249.80
  volume of cell :       68.00
      direct lattice vectors                 reciprocal lattice vectors
     0.000000000  3.239654000  3.239654000    -0.154337469  0.154337469  0.154337469
     3.239654000  0.000000000  3.239654000     0.154337469 -0.154337469  0.154337469
     3.239654000  3.239654000  0.000000000     0.154337469  0.154337469 -0.154337469

  length of vectors
     4.581562624  4.581562624  4.581562624     0.267320338  0.267320338  0.267320338



 k-points in units of 2pi/SCALE and weight: KPOINTS
   0.00000000  0.00000000  0.00000000       0.000
  -0.00964609  0.00964609  0.00964609       0.002
  -0.01929218  0.01929218  0.01929218       0.002
  -0.02893828  0.02893828  0.02893828       0.002
  -0.03858437  0.03858437  0.03858437       0.002
  -0.04823046  0.04823046  0.04823046       0.002
  -0.05787655  0.05787655  0.05787655       0.002
  -0.06752264  0.06752264  0.06752264       0.002
  -0.07716873  0.07716873  0.07716873       0.001
   0.00000000  0.00000000  0.01929218       0.001
  -0.00964609  0.00964609  0.02893828       0.006
  -0.01929218  0.01929218  0.03858437       0.006
  -0.02893828  0.02893828  0.04823046       0.006
  -0.03858437  0.03858437  0.05787655       0.006
  -0.04823046  0.04823046  0.06752264       0.006
  -0.05787655  0.05787655  0.07716873       0.006
  -0.06752264  0.06752264  0.08681483       0.006
   0.07716873 -0.07716873 -0.05787655       0.006
   0.06752264 -0.06752264 -0.04823046       0.006
   0.05787655 -0.05787655 -0.03858437       0.006
   0.04823046 -0.04823046 -0.02893828       0.006
   0.03858437 -0.03858437 -0.01929218       0.006
   0.02893828 -0.02893828 -0.00964609       0.006
   0.01929218 -0.01929218  0.00000000       0.003
   0.00000000  0.00000000  0.03858437       0.001
  -0.00964609  0.00964609  0.04823046       0.006
  -0.01929218  0.01929218  0.05787655       0.006
  -0.02893828  0.02893828  0.06752264       0.006
  -0.03858437  0.03858437  0.07716873       0.006
  -0.04823046  0.04823046  0.08681483       0.006
  -0.05787655  0.05787655  0.09646092       0.006
   0.08681483 -0.08681483 -0.04823046       0.006
   0.07716873 -0.07716873 -0.03858437       0.006
   0.06752264 -0.06752264 -0.02893828       0.006
   0.05787655 -0.05787655 -0.01929218       0.006
   0.04823046 -0.04823046 -0.00964609       0.006
   0.03858437 -0.03858437  0.00000000       0.003
   0.00000000  0.00000000  0.05787655       0.001
  -0.00964609  0.00964609  0.06752264       0.006
  -0.01929218  0.01929218  0.07716873       0.006
  -0.02893828  0.02893828  0.08681483       0.006
  -0.03858437  0.03858437  0.09646092       0.006
  -0.04823046  0.04823046  0.10610701       0.006
   0.09646092 -0.09646092 -0.03858437       0.006
   0.08681483 -0.08681483 -0.02893828       0.006
   0.07716873 -0.07716873 -0.01929218       0.006
   0.06752264 -0.06752264 -0.00964609       0.006
   0.05787655 -0.05787655  0.00000000       0.003
   0.00000000  0.00000000  0.07716873       0.001
  -0.00964609  0.00964609  0.08681483       0.006
  -0.01929218  0.01929218  0.09646092       0.006
  -0.02893828  0.02893828  0.10610701       0.006
  -0.03858437  0.03858437  0.11575310       0.006
   0.10610701 -0.10610701 -0.02893828       0.006
   0.09646092 -0.09646092 -0.01929218       0.006
   0.08681483 -0.08681483 -0.00964609       0.006
   0.07716873 -0.07716873  0.00000000       0.003
   0.00000000  0.00000000  0.09646092       0.001
  -0.00964609  0.00964609  0.10610701       0.006
  -0.01929218  0.01929218  0.11575310       0.006
  -0.02893828  0.02893828  0.12539919       0.006
   0.11575310 -0.11575310 -0.01929218       0.006
   0.10610701 -0.10610701 -0.00964609       0.006
   0.09646092 -0.09646092  0.00000000       0.003
   0.00000000  0.00000000  0.11575310       0.001
  -0.00964609  0.00964609  0.12539919       0.006
  -0.01929218  0.01929218  0.13504529       0.006
   0.12539919 -0.12539919 -0.00964609       0.006
   0.11575310 -0.11575310  0.00000000       0.003
   0.00000000  0.00000000  0.13504529       0.001
  -0.00964609  0.00964609  0.14469138       0.006
   0.13504529 -0.13504529  0.00000000       0.003
   0.00000000  0.00000000  0.15433747       0.001
   0.00000000  0.01929218  0.03858437       0.006
  -0.00964609  0.02893828  0.04823046       0.012
  -0.01929218  0.03858437  0.05787655       0.012
  -0.02893828  0.04823046  0.06752264       0.012
  -0.03858437  0.05787655  0.07716873       0.012
  -0.04823046  0.06752264  0.08681483       0.012
   0.09646092 -0.07716873 -0.05787655       0.006
   0.00000000  0.01929218  0.05787655       0.006
  -0.00964609  0.02893828  0.06752264       0.012
  -0.01929218  0.03858437  0.07716873       0.012
  -0.02893828  0.04823046  0.08681483       0.012
  -0.03858437  0.05787655  0.09646092       0.012
   0.10610701 -0.08681483 -0.04823046       0.012
   0.09646092 -0.07716873 -0.03858437       0.012
   0.08681483 -0.06752264 -0.02893828       0.012
   0.07716873 -0.05787655 -0.01929218       0.012
   0.06752264 -0.04823046 -0.00964609       0.012
   0.05787655 -0.03858437  0.00000000       0.006
   0.00000000  0.01929218  0.07716873       0.006
  -0.00964609  0.02893828  0.08681483       0.012
  -0.01929218  0.03858437  0.09646092       0.012
  -0.02893828  0.04823046  0.10610701       0.012
   0.11575310 -0.09646092 -0.03858437       0.012
   0.10610701 -0.08681483 -0.02893828       0.012
   0.09646092 -0.07716873 -0.01929218       0.012
   0.08681483 -0.06752264 -0.00964609       0.012
   0.07716873 -0.05787655  0.00000000       0.006
   0.00000000  0.01929218  0.09646092       0.006
  -0.00964609  0.02893828  0.10610701       0.012
  -0.01929218  0.03858437  0.11575310       0.012
   0.12539919 -0.10610701 -0.02893828       0.012
   0.11575310 -0.09646092 -0.01929218       0.012
   0.10610701 -0.08681483 -0.00964609       0.012
   0.09646092 -0.07716873  0.00000000       0.006
   0.00000000  0.01929218  0.11575310       0.006
  -0.00964609  0.02893828  0.12539919       0.012
   0.13504529 -0.11575310 -0.01929218       0.012
   0.12539919 -0.10610701 -0.00964609       0.012
   0.11575310 -0.09646092  0.00000000       0.006
   0.00000000  0.01929218  0.13504529       0.006
   0.14469138 -0.12539919 -0.00964609       0.012
   0.13504529 -0.11575310  0.00000000       0.006
   0.15433747 -0.13504529  0.00000000       0.003
   0.00000000  0.03858437  0.07716873       0.006
  -0.00964609  0.04823046  0.08681483       0.012
  -0.01929218  0.05787655  0.09646092       0.012
   0.12539919 -0.08681483 -0.04823046       0.012
   0.11575310 -0.07716873 -0.03858437       0.006
   0.00000000  0.03858437  0.09646092       0.006
  -0.00964609  0.04823046  0.10610701       0.012
   0.13504529 -0.09646092 -0.03858437       0.012
   0.12539919 -0.08681483 -0.02893828       0.012
   0.11575310 -0.07716873 -0.01929218       0.012
   0.10610701 -0.06752264 -0.00964609       0.012
   0.09646092 -0.05787655  0.00000000       0.006
   0.00000000  0.03858437  0.11575310       0.006
   0.14469138 -0.10610701 -0.02893828       0.012
   0.13504529 -0.09646092 -0.01929218       0.012
   0.12539919 -0.08681483 -0.00964609       0.012
   0.11575310 -0.07716873  0.00000000       0.006
   0.15433747 -0.11575310 -0.01929218       0.006
   0.14469138 -0.10610701 -0.00964609       0.012
   0.13504529 -0.09646092  0.00000000       0.006
   0.15433747 -0.11575310  0.00000000       0.003
   0.15433747 -0.09646092 -0.03858437       0.006
   0.14469138 -0.08681483 -0.02893828       0.012
   0.13504529 -0.07716873 -0.01929218       0.006
   0.15433747 -0.09646092 -0.01929218       0.006
   0.14469138 -0.08681483 -0.00964609       0.012
   0.13504529 -0.07716873  0.00000000       0.006
   0.15433747 -0.09646092  0.00000000       0.003
   0.15433747 -0.07716873  0.00000000       0.001

 k-points in reciprocal lattice and weights: KPOINTS
   0.00000000  0.00000000  0.00000000       0.000
   0.06250000  0.00000000  0.00000000       0.002
   0.12500000  0.00000000  0.00000000       0.002
   0.18750000  0.00000000  0.00000000       0.002
   0.25000000  0.00000000  0.00000000       0.002
   0.31250000  0.00000000  0.00000000       0.002
   0.37500000  0.00000000  0.00000000       0.002
   0.43750000  0.00000000  0.00000000       0.002
   0.50000000  0.00000000  0.00000000       0.001
   0.06250000  0.06250000  0.00000000       0.001
   0.12500000  0.06250000  0.00000000       0.006
   0.18750000  0.06250000  0.00000000       0.006
   0.25000000  0.06250000  0.00000000       0.006
   0.31250000  0.06250000  0.00000000       0.006
   0.37500000  0.06250000  0.00000000       0.006
   0.43750000  0.06250000  0.00000000       0.006
   0.50000000  0.06250000  0.00000000       0.006
  -0.43750000  0.06250000  0.00000000       0.006
  -0.37500000  0.06250000  0.00000000       0.006
  -0.31250000  0.06250000  0.00000000       0.006
  -0.25000000  0.06250000  0.00000000       0.006
  -0.18750000  0.06250000  0.00000000       0.006
  -0.12500000  0.06250000  0.00000000       0.006
  -0.06250000  0.06250000  0.00000000       0.003
   0.12500000  0.12500000  0.00000000       0.001
   0.18750000  0.12500000  0.00000000       0.006
   0.25000000  0.12500000  0.00000000       0.006
   0.31250000  0.12500000  0.00000000       0.006
   0.37500000  0.12500000  0.00000000       0.006
   0.43750000  0.12500000  0.00000000       0.006
   0.50000000  0.12500000  0.00000000       0.006
  -0.43750000  0.12500000  0.00000000       0.006
  -0.37500000  0.12500000  0.00000000       0.006
  -0.31250000  0.12500000  0.00000000       0.006
  -0.25000000  0.12500000  0.00000000       0.006
  -0.18750000  0.12500000  0.00000000       0.006
  -0.12500000  0.12500000  0.00000000       0.003
   0.18750000  0.18750000  0.00000000       0.001
   0.25000000  0.18750000  0.00000000       0.006
   0.31250000  0.18750000  0.00000000       0.006
   0.37500000  0.18750000  0.00000000       0.006
   0.43750000  0.18750000  0.00000000       0.006
   0.50000000  0.18750000  0.00000000       0.006
  -0.43750000  0.18750000  0.00000000       0.006
  -0.37500000  0.18750000  0.00000000       0.006
  -0.31250000  0.18750000  0.00000000       0.006
  -0.25000000  0.18750000  0.00000000       0.006
  -0.18750000  0.18750000  0.00000000       0.003
   0.25000000  0.25000000  0.00000000       0.001
   0.31250000  0.25000000  0.00000000       0.006
   0.37500000  0.25000000  0.00000000       0.006
   0.43750000  0.25000000  0.00000000       0.006
   0.50000000  0.25000000  0.00000000       0.006
  -0.43750000  0.25000000  0.00000000       0.006
  -0.37500000  0.25000000  0.00000000       0.006
  -0.31250000  0.25000000  0.00000000       0.006
  -0.25000000  0.25000000  0.00000000       0.003
   0.31250000  0.31250000  0.00000000       0.001
   0.37500000  0.31250000  0.00000000       0.006
   0.43750000  0.31250000  0.00000000       0.006
   0.50000000  0.31250000  0.00000000       0.006
  -0.43750000  0.31250000  0.00000000       0.006
  -0.37500000  0.31250000  0.00000000       0.006
  -0.31250000  0.31250000  0.00000000       0.003
   0.37500000  0.37500000  0.00000000       0.001
   0.43750000  0.37500000  0.00000000       0.006
   0.50000000  0.37500000  0.00000000       0.006
  -0.43750000  0.37500000  0.00000000       0.006
  -0.37500000  0.37500000  0.00000000       0.003
   0.43750000  0.43750000  0.00000000       0.001
   0.50000000  0.43750000  0.00000000       0.006
  -0.43750000  0.43750000  0.00000000       0.003
   0.50000000  0.50000000  0.00000000       0.001
   0.18750000  0.12500000  0.06250000       0.006
   0.25000000  0.12500000  0.06250000       0.012
   0.31250000  0.12500000  0.06250000       0.012
   0.37500000  0.12500000  0.06250000       0.012
   0.43750000  0.12500000  0.06250000       0.012
   0.50000000  0.12500000  0.06250000       0.012
  -0.43750000  0.12500000  0.06250000       0.006
   0.25000000  0.18750000  0.06250000       0.006
   0.31250000  0.18750000  0.06250000       0.012
   0.37500000  0.18750000  0.06250000       0.012
   0.43750000  0.18750000  0.06250000       0.012
   0.50000000  0.18750000  0.06250000       0.012
  -0.43750000  0.18750000  0.06250000       0.012
  -0.37500000  0.18750000  0.06250000       0.012
  -0.31250000  0.18750000  0.06250000       0.012
  -0.25000000  0.18750000  0.06250000       0.012
  -0.18750000  0.18750000  0.06250000       0.012
  -0.12500000  0.18750000  0.06250000       0.006
   0.31250000  0.25000000  0.06250000       0.006
   0.37500000  0.25000000  0.06250000       0.012
   0.43750000  0.25000000  0.06250000       0.012
   0.50000000  0.25000000  0.06250000       0.012
  -0.43750000  0.25000000  0.06250000       0.012
  -0.37500000  0.25000000  0.06250000       0.012
  -0.31250000  0.25000000  0.06250000       0.012
  -0.25000000  0.25000000  0.06250000       0.012
  -0.18750000  0.25000000  0.06250000       0.006
   0.37500000  0.31250000  0.06250000       0.006
   0.43750000  0.31250000  0.06250000       0.012
   0.50000000  0.31250000  0.06250000       0.012
  -0.43750000  0.31250000  0.06250000       0.012
  -0.37500000  0.31250000  0.06250000       0.012
  -0.31250000  0.31250000  0.06250000       0.012
  -0.25000000  0.31250000  0.06250000       0.006
   0.43750000  0.37500000  0.06250000       0.006
   0.50000000  0.37500000  0.06250000       0.012
  -0.43750000  0.37500000  0.06250000       0.012
  -0.37500000  0.37500000  0.06250000       0.012
  -0.31250000  0.37500000  0.06250000       0.006
   0.50000000  0.43750000  0.06250000       0.006
  -0.43750000  0.43750000  0.06250000       0.012
  -0.37500000  0.43750000  0.06250000       0.006
  -0.43750000  0.50000000  0.06250000       0.003
   0.37500000  0.25000000  0.12500000       0.006
   0.43750000  0.25000000  0.12500000       0.012
   0.50000000  0.25000000  0.12500000       0.012
  -0.43750000  0.25000000  0.12500000       0.012
  -0.37500000  0.25000000  0.12500000       0.006
   0.43750000  0.31250000  0.12500000       0.006
   0.50000000  0.31250000  0.12500000       0.012
  -0.43750000  0.31250000  0.12500000       0.012
  -0.37500000  0.31250000  0.12500000       0.012
  -0.31250000  0.31250000  0.12500000       0.012
  -0.25000000  0.31250000  0.12500000       0.012
  -0.18750000  0.31250000  0.12500000       0.006
   0.50000000  0.37500000  0.12500000       0.006
  -0.43750000  0.37500000  0.12500000       0.012
  -0.37500000  0.37500000  0.12500000       0.012
  -0.31250000  0.37500000  0.12500000       0.012
  -0.25000000  0.37500000  0.12500000       0.006
  -0.43750000  0.43750000  0.12500000       0.006
  -0.37500000  0.43750000  0.12500000       0.012
  -0.31250000  0.43750000  0.12500000       0.006
  -0.37500000  0.50000000  0.12500000       0.003
  -0.43750000  0.37500000  0.18750000       0.006
  -0.37500000  0.37500000  0.18750000       0.012
  -0.31250000  0.37500000  0.18750000       0.006
  -0.37500000  0.43750000  0.18750000       0.006
  -0.31250000  0.43750000  0.18750000       0.012
  -0.25000000  0.43750000  0.18750000       0.006
  -0.31250000  0.50000000  0.18750000       0.003
  -0.25000000  0.50000000  0.25000000       0.001

 position of ions in fractional coordinates (direct lattice)
   0.00000000  0.00000000  0.00000000
   0.50000100  0.50000100  0.50000100

 position of ions in cartesian coordinates  (Angst):
   0.00000000  0.00000000  0.00000000
   3.23966049  3.23966049  3.23966049



--------------------------------------------------------------------------------------------------------


 k-point  1 :   0.0000 0.0000 0.0000  plane waves:     609
 k-point  2 :   0.0625 0.0000 0.0000  plane waves:     606
 k-point  3 :   0.1250 0.0000 0.0000  plane waves:     603
 k-point  4 :   0.1875 0.0000 0.0000  plane waves:     592
 k-point  5 :   0.2500 0.0000 0.0000  plane waves:     607
 k-point  6 :   0.3125 0.0000 0.0000  plane waves:     607
 k-point  7 :   0.3750 0.0000 0.0000  plane waves:     607
 k-point  8 :   0.4375 0.0000 0.0000  plane waves:     604
 k-point  9 :   0.5000 0.0000 0.0000  plane waves:     610
 k-point 10 :   0.0625 0.0625 0.0000  plane waves:     605
 k-point 11 :   0.1250 0.0625 0.0000  plane waves:     601
 k-point 12 :   0.1875 0.0625 0.0000  plane waves:     600
 k-point 13 :   0.2500 0.0625 0.0000  plane waves:     603
 k-point 14 :   0.3125 0.0625 0.0000  plane waves:     603
 k-point 15 :   0.3750 0.0625 0.0000  plane waves:     606
 k-point 16 :   0.4375 0.0625 0.0000  plane waves:     604
 k-point 17 :   0.5000 0.0625 0.0000  plane waves:     608
 k-point 18 :  -0.4375 0.0625 0.0000  plane waves:     608
 k-point 19 :  -0.3750 0.0625 0.0000  plane waves:     608
 k-point 20 :  -0.3125 0.0625 0.0000  plane waves:     607
 k-point 21 :  -0.2500 0.0625 0.0000  plane waves:     607
 k-point 22 :  -0.1875 0.0625 0.0000  plane waves:     602
 k-point 23 :  -0.1250 0.0625 0.0000  plane waves:     598
 k-point 24 :  -0.0625 0.0625 0.0000  plane waves:     602
 k-point 25 :   0.1250 0.1250 0.0000  plane waves:     597
 k-point 26 :   0.1875 0.1250 0.0000  plane waves:     597
 k-point 27 :   0.2500 0.1250 0.0000  plane waves:     604
 k-point 28 :   0.3125 0.1250 0.0000  plane waves:     606
 k-point 29 :   0.3750 0.1250 0.0000  plane waves:     609
 k-point 30 :   0.4375 0.1250 0.0000  plane waves:     605
 k-point 31 :   0.5000 0.1250 0.0000  plane waves:     606
 k-point 32 :  -0.4375 0.1250 0.0000  plane waves:     605
 k-point 33 :  -0.3750 0.1250 0.0000  plane waves:     606
 k-point 34 :  -0.3125 0.1250 0.0000  plane waves:     609
 k-point 35 :  -0.2500 0.1250 0.0000  plane waves:     609
 k-point 36 :  -0.1875 0.1250 0.0000  plane waves:     607
 k-point 37 :  -0.1250 0.1250 0.0000  plane waves:     606
 k-point 38 :   0.1875 0.1875 0.0000  plane waves:     596
 k-point 39 :   0.2500 0.1875 0.0000  plane waves:     601
 k-point 40 :   0.3125 0.1875 0.0000  plane waves:     606
 k-point 41 :   0.3750 0.1875 0.0000  plane waves:     609
 k-point 42 :   0.4375 0.1875 0.0000  plane waves:     609
 k-point 43 :   0.5000 0.1875 0.0000  plane waves:     610
 k-point 44 :  -0.4375 0.1875 0.0000  plane waves:     609
 k-point 45 :  -0.3750 0.1875 0.0000  plane waves:     605
 k-point 46 :  -0.3125 0.1875 0.0000  plane waves:     608
 k-point 47 :  -0.2500 0.1875 0.0000  plane waves:     611
 k-point 48 :  -0.1875 0.1875 0.0000  plane waves:     602
 k-point 49 :   0.2500 0.2500 0.0000  plane waves:     592
 k-point 50 :   0.3125 0.2500 0.0000  plane waves:     611
 k-point 51 :   0.3750 0.2500 0.0000  plane waves:     610
 k-point 52 :   0.4375 0.2500 0.0000  plane waves:     609
 k-point 53 :   0.5000 0.2500 0.0000  plane waves:     616
 k-point 54 :  -0.4375 0.2500 0.0000  plane waves:     611
 k-point 55 :  -0.3750 0.2500 0.0000  plane waves:     609
 k-point 56 :  -0.3125 0.2500 0.0000  plane waves:     608
 k-point 57 :  -0.2500 0.2500 0.0000  plane waves:     616
 k-point 58 :   0.3125 0.3125 0.0000  plane waves:     612
 k-point 59 :   0.3750 0.3125 0.0000  plane waves:     615
 k-point 60 :   0.4375 0.3125 0.0000  plane waves:     615
 k-point 61 :   0.5000 0.3125 0.0000  plane waves:     616
 k-point 62 :  -0.4375 0.3125 0.0000  plane waves:     612
 k-point 63 :  -0.3750 0.3125 0.0000  plane waves:     612
 k-point 64 :  -0.3125 0.3125 0.0000  plane waves:     606
 k-point 65 :   0.3750 0.3750 0.0000  plane waves:     616
 k-point 66 :   0.4375 0.3750 0.0000  plane waves:     614
 k-point 67 :   0.5000 0.3750 0.0000  plane waves:     614
 k-point 68 :  -0.4375 0.3750 0.0000  plane waves:     617
 k-point 69 :  -0.3750 0.3750 0.0000  plane waves:     618
 k-point 70 :   0.4375 0.4375 0.0000  plane waves:     620
 k-point 71 :   0.5000 0.4375 0.0000  plane waves:     616
 k-point 72 :  -0.4375 0.4375 0.0000  plane waves:     616
 k-point 73 :   0.5000 0.5000 0.0000  plane waves:     620
 k-point 74 :   0.1875 0.1250 0.0625  plane waves:     597
 k-point 75 :   0.2500 0.1250 0.0625  plane waves:     599
 k-point 76 :   0.3125 0.1250 0.0625  plane waves:     608
 k-point 77 :   0.3750 0.1250 0.0625  plane waves:     608
 k-point 78 :   0.4375 0.1250 0.0625  plane waves:     609
 k-point 79 :   0.5000 0.1250 0.0625  plane waves:     606
 k-point 80 :  -0.4375 0.1250 0.0625  plane waves:     604
 k-point 81 :   0.2500 0.1875 0.0625  plane waves:     599
 k-point 82 :   0.3125 0.1875 0.0625  plane waves:     606
 k-point 83 :   0.3750 0.1875 0.0625  plane waves:     607
 k-point 84 :   0.4375 0.1875 0.0625  plane waves:     611
 k-point 85 :   0.5000 0.1875 0.0625  plane waves:     608
 k-point 86 :  -0.4375 0.1875 0.0625  plane waves:     604
 k-point 87 :  -0.3750 0.1875 0.0625  plane waves:     608
 k-point 88 :  -0.3125 0.1875 0.0625  plane waves:     610
 k-point 89 :  -0.2500 0.1875 0.0625  plane waves:     609
 k-point 90 :  -0.1875 0.1875 0.0625  plane waves:     609
 k-point 91 :  -0.1250 0.1875 0.0625  plane waves:     609
 k-point 92 :   0.3125 0.2500 0.0625  plane waves:     603
 k-point 93 :   0.3750 0.2500 0.0625  plane waves:     609
 k-point 94 :   0.4375 0.2500 0.0625  plane waves:     613
 k-point 95 :   0.5000 0.2500 0.0625  plane waves:     610
 k-point 96 :  -0.4375 0.2500 0.0625  plane waves:     613
 k-point 97 :  -0.3750 0.2500 0.0625  plane waves:     611
 k-point 98 :  -0.3125 0.2500 0.0625  plane waves:     610
 k-point 99 :  -0.2500 0.2500 0.0625  plane waves:     609
 k-point ** :  -0.1875 0.2500 0.0625  plane waves:     613
 k-point ** :   0.3750 0.3125 0.0625  plane waves:     612
 k-point ** :   0.4375 0.3125 0.0625  plane waves:     609
 k-point ** :   0.5000 0.3125 0.0625  plane waves:     611
 k-point ** :  -0.4375 0.3125 0.0625  plane waves:     614
 k-point ** :  -0.3750 0.3125 0.0625  plane waves:     614
 k-point ** :  -0.3125 0.3125 0.0625  plane waves:     612
 k-point ** :  -0.2500 0.3125 0.0625  plane waves:     610
 k-point ** :   0.4375 0.3750 0.0625  plane waves:     611
 k-point ** :   0.5000 0.3750 0.0625  plane waves:     613
 k-point ** :  -0.4375 0.3750 0.0625  plane waves:     614
 k-point ** :  -0.3750 0.3750 0.0625  plane waves:     612
 k-point ** :  -0.3125 0.3750 0.0625  plane waves:     612
 k-point ** :   0.5000 0.4375 0.0625  plane waves:     612
 k-point ** :  -0.4375 0.4375 0.0625  plane waves:     617
 k-point ** :  -0.3750 0.4375 0.0625  plane waves:     613
 k-point ** :  -0.4375 0.5000 0.0625  plane waves:     620
 k-point ** :   0.3750 0.2500 0.1250  plane waves:     608
 k-point ** :   0.4375 0.2500 0.1250  plane waves:     613
 k-point ** :   0.5000 0.2500 0.1250  plane waves:     612
 k-point ** :  -0.4375 0.2500 0.1250  plane waves:     611
 k-point ** :  -0.3750 0.2500 0.1250  plane waves:     602
 k-point ** :   0.4375 0.3125 0.1250  plane waves:     613
 k-point ** :   0.5000 0.3125 0.1250  plane waves:     610
 k-point ** :  -0.4375 0.3125 0.1250  plane waves:     616
 k-point ** :  -0.3750 0.3125 0.1250  plane waves:     614
 k-point ** :  -0.3125 0.3125 0.1250  plane waves:     612
 k-point ** :  -0.2500 0.3125 0.1250  plane waves:     610
 k-point ** :  -0.1875 0.3125 0.1250  plane waves:     613
 k-point ** :   0.5000 0.3750 0.1250  plane waves:     614
 k-point ** :  -0.4375 0.3750 0.1250  plane waves:     613
 k-point ** :  -0.3750 0.3750 0.1250  plane waves:     613
 k-point ** :  -0.3125 0.3750 0.1250  plane waves:     609
 k-point ** :  -0.2500 0.3750 0.1250  plane waves:     614
 k-point ** :  -0.4375 0.4375 0.1250  plane waves:     613
 k-point ** :  -0.3750 0.4375 0.1250  plane waves:     614
 k-point ** :  -0.3125 0.4375 0.1250  plane waves:     616
 k-point ** :  -0.3750 0.5000 0.1250  plane waves:     614
 k-point ** :  -0.4375 0.3750 0.1875  plane waves:     619
 k-point ** :  -0.3750 0.3750 0.1875  plane waves:     617
 k-point ** :  -0.3125 0.3750 0.1875  plane waves:     618
 k-point ** :  -0.3750 0.4375 0.1875  plane waves:     613
 k-point ** :  -0.3125 0.4375 0.1875  plane waves:     615
 k-point ** :  -0.2500 0.4375 0.1875  plane waves:     615
 k-point ** :  -0.3125 0.5000 0.1875  plane waves:     614
 k-point ** :  -0.2500 0.5000 0.2500  plane waves:     616

 maximum number of plane-waves:       620
 maximum index in each direction:
   IXMAX=    6   IYMAX=    5   IZMAX=    5
   IXMIN=   -6   IYMIN=   -6   IZMIN=   -6

 WARNING: aliasing errors must be expected set NGX to  26 to avoid them
 NGY is ok and might be reduce to  24
 NGZ is ok and might be reduce to  24
 aliasing errors are usually negligible using standard VASP settings
 and one can safely disregard these warnings

 total amount of memory used by VASP on root node   142468. kBytes
========================================================================

   base      :      30000. kBytes
   nonl-proj :      46048. kBytes
   grid      :      10266. kBytes
   one-center:        196. kBytes
   wavefun   :      55958. kBytes

 Broyden mixing: mesh for mixing (old mesh)
   NGX = 11   NGY = 11   NGZ = 11
  (NGX  = 48   NGY  = 48   NGZ  = 48)
  gives a total of   1331 points

 initial charge density was supplied:
 charge density of overlapping atoms calculated
 number of electron      22.0000000 magnetization       0.0040000
 keeping initial charge density in first step


--------------------------------------------------------------------------------------------------------


 Maximum index for augmentation-charges        11489 (set IRDMAX)


--------------------------------------------------------------------------------------------------------


 First call to EWALD:  gamma=   0.434
 Maximum number of real-space cells 3x 3x 3
 Maximum number of reciprocal cells 3x 3x 3

    FEWALD:  cpu time    0.00: real time    0.00


----------------------------------------- Iteration    1(   1)  ---------------------------------------


    POTLOK:  cpu time    0.36: real time    0.36
    SETDIJ:  cpu time    0.07: real time    0.07
     EDDAV:  cpu time   31.72: real time   31.74
       DOS:  cpu time    0.03: real time    0.04
    --------------------------------------------
      LOOP:  cpu time   32.19: real time   32.20

 eigenvalue-minimisations  : 10440
 total energy-change (2. order) : 0.1164588E+03  (-0.5943751E+03)
 number of electron      22.0000000 magnetization       0.0040000
 augmentation part       22.0000000 magnetization       0.0040000

 Free energy of the ion-electron system (eV)
  ---------------------------------------------------
  alpha Z        PSCENC =       117.79184427
  Ewald energy   TEWEN  =     -1525.97595329
  -1/2 Hartree   DENC   =      -409.06768234
  -exchange  EXHF       =         0.00000000
  -V(xc)+E(xc)   XCENC  =       -47.45226295
  PAW double counting   =      1356.25396662    -1245.44542245
  entropy T*S    EENTRO =        -0.00003963
  eigenvalues    EBANDS =        20.67684976
  atomic energy  EATOM  =      1849.67745644
  ---------------------------------------------------
  free energy    TOTEN  =       116.45875643 eV

  energy without entropy =      116.45879606  energy(sigma->0) =      116.45876964


--------------------------------------------------------------------------------------------------------




----------------------------------------- Iteration    1(   2)  ---------------------------------------


     EDDAV:  cpu time   32.66: real time   32.67
       DOS:  cpu time    0.03: real time    0.03
    --------------------------------------------
      LOOP:  cpu time   32.69: real time   32.71

 eigenvalue-minimisations  : 10984
 total energy-change (2. order) :-0.1147544E+03  (-0.1115967E+03)
 number of electron      22.0000000 magnetization       0.0040000
 augmentation part       22.0000000 magnetization       0.0040000

 Free energy of the ion-electron system (eV)
  ---------------------------------------------------
  alpha Z        PSCENC =       117.79184427
  Ewald energy   TEWEN  =     -1525.97595329
  -1/2 Hartree   DENC   =      -409.06768234
  -exchange  EXHF       =         0.00000000
  -V(xc)+E(xc)   XCENC  =       -47.45226295
  PAW double counting   =      1356.25396662    -1245.44542245
  entropy T*S    EENTRO =        -0.00068719
  eigenvalues    EBANDS =       -94.07687912
  atomic energy  EATOM  =      1849.67745644
  ---------------------------------------------------
  free energy    TOTEN  =         1.70437998 eV

  energy without entropy =        1.70506718  energy(sigma->0) =        1.70460905


--------------------------------------------------------------------------------------------------------




----------------------------------------- Iteration    1(   3)  ---------------------------------------


     EDDAV:  cpu time   42.93: real time   42.96
       DOS:  cpu time    0.03: real time    0.03
    --------------------------------------------
      LOOP:  cpu time   42.97: real time   43.00

 eigenvalue-minimisations  : 15412
 total energy-change (2. order) :-0.8862766E+01  (-0.8736349E+01)
 number of electron      22.0000000 magnetization       0.0040000
 augmentation part       22.0000000 magnetization       0.0040000

 Free energy of the ion-electron system (eV)
  ---------------------------------------------------
  alpha Z        PSCENC =       117.79184427
  Ewald energy   TEWEN  =     -1525.97595329
  -1/2 Hartree   DENC   =      -409.06768234
  -exchange  EXHF       =         0.00000000
  -V(xc)+E(xc)   XCENC  =       -47.45226295
  PAW double counting   =      1356.25396662    -1245.44542245
  entropy T*S    EENTRO =        -0.00928393
  eigenvalues    EBANDS =      -102.93104875
  atomic energy  EATOM  =      1849.67745644
  ---------------------------------------------------
  free energy    TOTEN  =        -7.15838638 eV

  energy without entropy =       -7.14910245  energy(sigma->0) =       -7.15529174


--------------------------------------------------------------------------------------------------------




----------------------------------------- Iteration    1(   4)  ---------------------------------------


     EDDAV:  cpu time   50.80: real time   50.82
       DOS:  cpu time    0.03: real time    0.03
    --------------------------------------------
      LOOP:  cpu time   50.83: real time   50.86

 eigenvalue-minimisations  : 18100
 total energy-change (2. order) :-0.3942445E+00  (-0.3937711E+00)
 number of electron      22.0000000 magnetization       0.0040000
 augmentation part       22.0000000 magnetization       0.0040000

 Free energy of the ion-electron system (eV)
  ---------------------------------------------------
  alpha Z        PSCENC =       117.79184427
  Ewald energy   TEWEN  =     -1525.97595329
  -1/2 Hartree   DENC   =      -409.06768234
  -exchange  EXHF       =         0.00000000
  -V(xc)+E(xc)   XCENC  =       -47.45226295
  PAW double counting   =      1356.25396662    -1245.44542245
  entropy T*S    EENTRO =        -0.00921743
  eigenvalues    EBANDS =      -103.32535977
  atomic energy  EATOM  =      1849.67745644
  ---------------------------------------------------
  free energy    TOTEN  =        -7.55263090 eV

  energy without entropy =       -7.54341347  energy(sigma->0) =       -7.54955842


--------------------------------------------------------------------------------------------------------




----------------------------------------- Iteration    1(   5)  ---------------------------------------


     EDDAV:  cpu time   43.48: real time   43.50
       DOS:  cpu time    0.03: real time    0.04
    CHARGE:  cpu time    4.03: real time    4.03
    MIXING:  cpu time    0.01: real time    0.01
    --------------------------------------------
      LOOP:  cpu time   47.55: real time   47.58

 eigenvalue-minimisations  : 15548
 total energy-change (2. order) :-0.3390471E-02  (-0.3388430E-02)
 number of electron      21.9999995 magnetization       0.0013612
 augmentation part        2.9371843 magnetization      -0.0000147

 Broyden mixing:
  rms(total) = 0.46721E+00    rms(broyden)= 0.46690E+00
  rms(prec ) = 0.12264E+01
  weight for this iteration     100.00

 Free energy of the ion-electron system (eV)
  ---------------------------------------------------
  alpha Z        PSCENC =       117.79184427
  Ewald energy   TEWEN  =     -1525.97595329
  -1/2 Hartree   DENC   =      -409.06768234
  -exchange  EXHF       =         0.00000000
  -V(xc)+E(xc)   XCENC  =       -47.45226295
  PAW double counting   =      1356.25396662    -1245.44542245
  entropy T*S    EENTRO =        -0.00921401
  eigenvalues    EBANDS =      -103.32875365
  atomic energy  EATOM  =      1849.67745644
  ---------------------------------------------------
  free energy    TOTEN  =        -7.55602137 eV

  energy without entropy =       -7.54680735  energy(sigma->0) =       -7.55295003


--------------------------------------------------------------------------------------------------------




----------------------------------------- Iteration    1(   6)  ---------------------------------------


    POTLOK:  cpu time    0.36: real time    0.36
    SETDIJ:  cpu time    0.08: real time    0.08
    EDDIAG:  cpu time    7.60: real time    7.62
  RMM-DIIS:  cpu time   32.77: real time   32.81
    ORTHCH:  cpu time    0.31: real time    0.31
       DOS:  cpu time    0.04: real time    0.04
    CHARGE:  cpu time    4.00: real time    4.01
    MIXING:  cpu time    0.01: real time    0.01
    --------------------------------------------
      LOOP:  cpu time   45.17: real time   45.24

 eigenvalue-minimisations  : 10715
 total energy-change (2. order) : 0.3716999E+00  (-0.2775076E+00)
 number of electron      21.9999995 magnetization       0.0020008
 augmentation part        3.2739341 magnetization       0.0003505

 Broyden mixing:
  rms(total) = 0.11695E+00    rms(broyden)= 0.11678E+00
  rms(prec ) = 0.27571E+00
  weight for this iteration     100.00

 eigenvalues of (default mixing * dielectric matrix)
  average eigenvalue GAMMA=   0.9715
  0.9715

 Free energy of the ion-electron system (eV)
  ---------------------------------------------------
  alpha Z        PSCENC =       117.79184427
  Ewald energy   TEWEN  =     -1525.97595329
  -1/2 Hartree   DENC   =      -391.82652403
  -exchange  EXHF       =         0.00000000
  -V(xc)+E(xc)   XCENC  =       -47.91667082
  PAW double counting   =      1339.95656005    -1231.03528669
  entropy T*S    EENTRO =        -0.00982885
  eigenvalues    EBANDS =      -117.84591852
  atomic energy  EATOM  =      1849.67745644
  ---------------------------------------------------
  free energy    TOTEN  =        -7.18432144 eV

  energy without entropy =       -7.17449258  energy(sigma->0) =       -7.18104515


--------------------------------------------------------------------------------------------------------




----------------------------------------- Iteration    1(   7)  ---------------------------------------


    POTLOK:  cpu time    0.36: real time    0.37
    SETDIJ:  cpu time    0.07: real time    0.07
    EDDIAG:  cpu time    7.54: real time    7.56
  RMM-DIIS:  cpu time   35.35: real time   35.41
    ORTHCH:  cpu time    0.31: real time    0.31
       DOS:  cpu time    0.04: real time    0.04
    CHARGE:  cpu time    3.98: real time    3.98
    MIXING:  cpu time    0.01: real time    0.01
    --------------------------------------------
      LOOP:  cpu time   47.66: real time   47.75

 eigenvalue-minimisations  : 10851
 total energy-change (2. order) : 0.3945180E-01  (-0.9134684E-02)
 number of electron      21.9999995 magnetization       0.0033626
 augmentation part        3.2201558 magnetization       0.0010268

 Broyden mixing:
  rms(total) = 0.73943E-01    rms(broyden)= 0.73939E-01
  rms(prec ) = 0.15731E+00
  weight for this iteration     100.00

 eigenvalues of (default mixing * dielectric matrix)
  average eigenvalue GAMMA=   1.6659
  0.8629  2.4689

 Free energy of the ion-electron system (eV)
  ---------------------------------------------------
  alpha Z        PSCENC =       117.79184427
  Ewald energy   TEWEN  =     -1525.97595329
  -1/2 Hartree   DENC   =      -393.00733230
  -exchange  EXHF       =         0.00000000
  -V(xc)+E(xc)   XCENC  =       -47.84655935
  PAW double counting   =      1353.48720951    -1245.89177887
  entropy T*S    EENTRO =        -0.00981196
  eigenvalues    EBANDS =      -115.36994409
  atomic energy  EATOM  =      1849.67745644
  ---------------------------------------------------
  free energy    TOTEN  =        -7.14486964 eV

  energy without entropy =       -7.13505768  energy(sigma->0) =       -7.14159899


--------------------------------------------------------------------------------------------------------




----------------------------------------- Iteration    1(   8)  ---------------------------------------


    POTLOK:  cpu time    0.35: real time    0.35
    SETDIJ:  cpu time    0.07: real time    0.07
    EDDIAG:  cpu time    7.51: real time    7.53
  RMM-DIIS:  cpu time   34.55: real time   34.57
    ORTHCH:  cpu time    0.31: real time    0.31
       DOS:  cpu time    0.04: real time    0.04
    CHARGE:  cpu time    3.98: real time    3.99
    MIXING:  cpu time    0.01: real time    0.01
    --------------------------------------------
      LOOP:  cpu time   46.82: real time   46.87

 eigenvalue-minimisations  : 11170
 total energy-change (2. order) : 0.5328128E-02  (-0.4482302E-02)
 number of electron      21.9999995 magnetization       0.0044043
 augmentation part        3.1875476 magnetization       0.0002226

 Broyden mixing:
  rms(total) = 0.23759E-01    rms(broyden)= 0.23748E-01
  rms(prec ) = 0.69140E-01
  weight for this iteration     100.00

 eigenvalues of (default mixing * dielectric matrix)
  average eigenvalue GAMMA=   1.4575
  2.5116  0.9305  0.9305

 Free energy of the ion-electron system (eV)
  ---------------------------------------------------
  alpha Z        PSCENC =       117.79184427
  Ewald energy   TEWEN  =     -1525.97595329
  -1/2 Hartree   DENC   =      -391.34536687
  -exchange  EXHF       =         0.00000000
  -V(xc)+E(xc)   XCENC  =       -47.83124796
  PAW double counting   =      1371.58281381    -1266.19660655
  entropy T*S    EENTRO =        -0.00982051
  eigenvalues    EBANDS =      -114.83266085
  atomic energy  EATOM  =      1849.67745644
  ---------------------------------------------------
  free energy    TOTEN  =        -7.13954151 eV

  energy without entropy =       -7.12972100  energy(sigma->0) =       -7.13626801


--------------------------------------------------------------------------------------------------------




----------------------------------------- Iteration    1(   9)  ---------------------------------------


    POTLOK:  cpu time    0.35: real time    0.35
    SETDIJ:  cpu time    0.07: real time    0.07
    EDDIAG:  cpu time    7.45: real time    7.46
  RMM-DIIS:  cpu time   32.12: real time   32.13
    ORTHCH:  cpu time    0.30: real time    0.30
       DOS:  cpu time    0.04: real time    0.04
    CHARGE:  cpu time    3.97: real time    3.97
    MIXING:  cpu time    0.01: real time    0.01
    --------------------------------------------
      LOOP:  cpu time   44.31: real time   44.34

 eigenvalue-minimisations  : 11213
 total energy-change (2. order) : 0.2289958E-02  (-0.1159219E-02)
 number of electron      21.9999995 magnetization       0.0086790
 augmentation part        3.2027798 magnetization       0.0033258

 Broyden mixing:
  rms(total) = 0.56419E-02    rms(broyden)= 0.56131E-02
  rms(prec ) = 0.12871E-01
  weight for this iteration     100.00

 eigenvalues of (default mixing * dielectric matrix)
  average eigenvalue GAMMA=   1.7463
  2.5560  2.5560  0.9366  0.9366

 Free energy of the ion-electron system (eV)
  ---------------------------------------------------
  alpha Z        PSCENC =       117.79184427
  Ewald energy   TEWEN  =     -1525.97595329
  -1/2 Hartree   DENC   =      -390.64726877
  -exchange  EXHF       =         0.00000000
  -V(xc)+E(xc)   XCENC  =       -47.85754038
  PAW double counting   =      1369.75173449    -1264.20585835
  entropy T*S    EENTRO =        -0.00984443
  eigenvalues    EBANDS =      -115.66182154
  atomic energy  EATOM  =      1849.67745644
  ---------------------------------------------------
  free energy    TOTEN  =        -7.13725155 eV

  energy without entropy =       -7.12740713  energy(sigma->0) =       -7.13397008


--------------------------------------------------------------------------------------------------------




----------------------------------------- Iteration    1(  10)  ---------------------------------------


    POTLOK:  cpu time    0.35: real time    0.35
    SETDIJ:  cpu time    0.07: real time    0.07
    EDDIAG:  cpu time    7.43: real time    7.43
  RMM-DIIS:  cpu time   33.54: real time   33.56
    ORTHCH:  cpu time    0.30: real time    0.30
       DOS:  cpu time    0.04: real time    0.04
    CHARGE:  cpu time    3.97: real time    3.97
    MIXING:  cpu time    0.01: real time    0.01
    --------------------------------------------
      LOOP:  cpu time   45.71: real time   45.74

 eigenvalue-minimisations  : 11685
 total energy-change (2. order) :-0.2226814E-03  (-0.2150722E-03)
 number of electron      21.9999995 magnetization       0.0094923
 augmentation part        3.2054271 magnetization      -0.0013740

 Broyden mixing:
  rms(total) = 0.59431E-02    rms(broyden)= 0.59384E-02
  rms(prec ) = 0.18121E-01
  weight for this iteration     100.00

 eigenvalues of (default mixing * dielectric matrix)
  average eigenvalue GAMMA=   1.5941
  2.5874  2.5874  0.9454  0.9454  0.9050

 Free energy of the ion-electron system (eV)
  ---------------------------------------------------
  alpha Z        PSCENC =       117.79184427
  Ewald energy   TEWEN  =     -1525.97595329
  -1/2 Hartree   DENC   =      -390.92928515
  -exchange  EXHF       =         0.00000000
  -V(xc)+E(xc)   XCENC  =       -47.86335927
  PAW double counting   =      1370.88853233    -1265.15627782
  entropy T*S    EENTRO =        -0.00982306
  eigenvalues    EBANDS =      -115.56060869
  atomic energy  EATOM  =      1849.67745644
  ---------------------------------------------------
  free energy    TOTEN  =        -7.13747424 eV

  energy without entropy =       -7.12765117  energy(sigma->0) =       -7.13419988


--------------------------------------------------------------------------------------------------------




----------------------------------------- Iteration    1(  11)  ---------------------------------------


    POTLOK:  cpu time    0.36: real time    0.36
    SETDIJ:  cpu time    0.08: real time    0.08
    EDDIAG:  cpu time    7.49: real time    7.50
  RMM-DIIS:  cpu time   30.68: real time   30.70
    ORTHCH:  cpu time    0.30: real time    0.30
       DOS:  cpu time    0.04: real time    0.04
    CHARGE:  cpu time    3.99: real time    3.99
    MIXING:  cpu time    0.01: real time    0.01
    --------------------------------------------
      LOOP:  cpu time   42.95: real time   43.00

 eigenvalue-minimisations  : 10472
 total energy-change (2. order) : 0.1432152E-03  (-0.7025062E-04)
 number of electron      21.9999995 magnetization       0.0146297
 augmentation part        3.2011856 magnetization       0.0029923

 Broyden mixing:
  rms(total) = 0.19467E-02    rms(broyden)= 0.19393E-02
  rms(prec ) = 0.49137E-02
  weight for this iteration     100.00

 eigenvalues of (default mixing * dielectric matrix)
  average eigenvalue GAMMA=   1.4696
  2.5146  2.5146  1.0483  1.0322  1.0322  0.6753

 Free energy of the ion-electron system (eV)
  ---------------------------------------------------
  alpha Z        PSCENC =       117.79184427
  Ewald energy   TEWEN  =     -1525.97595329
  -1/2 Hartree   DENC   =      -390.81708188
  -exchange  EXHF       =         0.00000000
  -V(xc)+E(xc)   XCENC  =       -47.85948278
  PAW double counting   =      1371.15786191    -1265.57434431
  entropy T*S    EENTRO =        -0.00982717
  eigenvalues    EBANDS =      -115.52780421
  atomic energy  EATOM  =      1849.67745644
  ---------------------------------------------------
  free energy    TOTEN  =        -7.13733102 eV

  energy without entropy =       -7.12750385  energy(sigma->0) =       -7.13405530


--------------------------------------------------------------------------------------------------------




----------------------------------------- Iteration    1(  12)  ---------------------------------------


    POTLOK:  cpu time    0.35: real time    0.35
    SETDIJ:  cpu time    0.07: real time    0.07
    EDDIAG:  cpu time    7.46: real time    7.47
  RMM-DIIS:  cpu time   22.52: real time   22.56
    ORTHCH:  cpu time    0.30: real time    0.30
       DOS:  cpu time    0.04: real time    0.04
    --------------------------------------------
      LOOP:  cpu time   30.75: real time   30.79

 eigenvalue-minimisations  :  7413
 total energy-change (2. order) :-0.5313515E-05  (-0.1813562E-04)
 number of electron      21.9999995 magnetization       0.0146297
 augmentation part        3.2011856 magnetization       0.0029923

 Free energy of the ion-electron system (eV)
  ---------------------------------------------------
  alpha Z        PSCENC =       117.79184427
  Ewald energy   TEWEN  =     -1525.97595329
  -1/2 Hartree   DENC   =      -390.83526684
  -exchange  EXHF       =         0.00000000
  -V(xc)+E(xc)   XCENC  =       -47.85953181
  PAW double counting   =      1370.88489691    -1265.29593314
  entropy T*S    EENTRO =        -0.00981756
  eigenvalues    EBANDS =      -115.51503131
  atomic energy  EATOM  =      1849.67745644
  ---------------------------------------------------
  free energy    TOTEN  =        -7.13733633 eV

  energy without entropy =       -7.12751877  energy(sigma->0) =       -7.13406381


--------------------------------------------------------------------------------------------------------




 average (electrostatic) potential at core
  the test charge radii are     1.1898  1.1249
  (the norm of the test charge is              1.0000)
       1 -73.3279       2 -40.7207



 E-fermi :   5.0949     XC(G=0):  -9.6883     alpha+bet :-10.1716


 spin component 1

 k-point   1 :       0.0000    0.0000    0.0000
  band No.  band energies     occupation
      1     -30.6700      1.00000
      2     -10.3773      1.00000
      3     -10.3773      1.00000
      4     -10.3773      1.00000
      5      -0.6032      1.00000
      6      -0.6032      1.00000
      7      -0.4124      1.00000
      8      -0.4124      1.00000
      9      -0.4124      1.00000
     10      -0.4088      1.00000
     11       6.8204      0.00000
     12       6.8204      0.00000
     13       6.8204      0.00000
     14       7.9309      0.00000
     15       7.9309      0.00000
     16       7.9312      0.00000
     17       7.9322      0.00000
[...]
z    -0.0308    0.0000   -0.0015    0.0000   -0.0004    0.0000    0.0008    0.0000    0.0004    0.0000
z     0.0004    0.0000    0.0000    0.0000    0.0000    0.0000    0.0000    0.0000    0.0000    0.0000
z     0.0000    0.0000    0.0000    0.0000    0.0000    0.0000    0.0000    0.0000    0.0000    0.0000
z     0.0000    0.0000    0.0000    0.0000    0.0000    0.0000    0.0000    0.0000    0.0000    0.0000
z     0.0000    0.0000    0.0000    0.0000    0.0000    0.0000    0.0000    0.0000    0.0000    0.0000

 pseudopotential strength for first ion, spin component:           1
 34.093  -5.015   0.000   0.000   0.000   0.000   0.000   0.000
 -5.015  -5.647   0.000   0.000   0.000   0.000   0.000   0.000
  0.000   0.000  10.321   0.000   0.000   0.030   0.000   0.000
  0.000   0.000   0.000  10.321   0.000   0.000   0.030   0.000
  0.000   0.000   0.000   0.000  10.321   0.000   0.000   0.030
  0.000   0.000   0.030   0.000   0.000   0.091   0.000   0.000
  0.000   0.000   0.000   0.030   0.000   0.000   0.091   0.000
  0.000   0.000   0.000   0.000   0.030   0.000   0.000   0.091
  0.000   0.000   0.000   0.000   0.000   0.000   0.000   0.000
  0.000   0.000   0.000   0.000   0.000   0.000   0.000   0.000
  0.000   0.000   0.000   0.000   0.000   0.000   0.000   0.000
  0.000   0.000   0.000   0.000   0.000   0.000   0.000   0.000
  0.000   0.000   0.000   0.000   0.000   0.000   0.000   0.000
  0.000   0.000   0.000   0.000   0.000   0.000   0.000   0.000
  0.000   0.000   0.000   0.000   0.000   0.000   0.000   0.000
  0.000   0.000   0.000   0.000   0.000   0.000   0.000   0.000
  0.000   0.000   0.000   0.000   0.000   0.000   0.000   0.000
  0.000   0.000   0.000   0.000   0.000   0.000   0.000   0.000
  0.000   0.000  -0.004   0.000   0.000   0.000   0.000   0.000
  0.000   0.000   0.000   0.000   0.000   0.000   0.000   0.000
  0.000   0.000  -0.003   0.000   0.000   0.000   0.000   0.000
  0.000   0.000   0.000   0.005   0.000   0.000   0.000   0.000
  0.000   0.000   0.000   0.000  -0.003   0.000   0.000   0.000
  0.000   0.000   0.000   0.000   0.000   0.000   0.000   0.000
  0.000   0.000   0.000   0.000   0.004   0.000   0.000   0.000
  0.000   0.000  -0.001   0.000   0.000   0.000   0.000   0.000
  0.000   0.000   0.000   0.000   0.000   0.000   0.000   0.000
  0.000   0.000  -0.001   0.000   0.000   0.000   0.000   0.000
  0.000   0.000   0.000   0.001   0.000   0.000   0.000   0.000
  0.000   0.000   0.000   0.000  -0.001   0.000   0.000   0.000
  0.000   0.000   0.000   0.000   0.000   0.000   0.000   0.000
  0.000   0.000   0.000   0.000   0.001   0.000   0.000   0.000
 pseudopotential strength for first ion, spin component:           2
 34.093  -5.014   0.000   0.000   0.000   0.000   0.000   0.000
 -5.014  -5.647   0.000   0.000   0.000   0.000   0.000   0.000
  0.000   0.000  10.321   0.000   0.000   0.030   0.000   0.000
  0.000   0.000   0.000  10.321   0.000   0.000   0.030   0.000
  0.000   0.000   0.000   0.000  10.321   0.000   0.000   0.030
  0.000   0.000   0.030   0.000   0.000   0.091   0.000   0.000
  0.000   0.000   0.000   0.030   0.000   0.000   0.091   0.000
  0.000   0.000   0.000   0.000   0.030   0.000   0.000   0.091
  0.000   0.000   0.000   0.000   0.000   0.000   0.000   0.000
  0.000   0.000   0.000   0.000   0.000   0.000   0.000   0.000
  0.000   0.000   0.000   0.000   0.000   0.000   0.000   0.000
  0.000   0.000   0.000   0.000   0.000   0.000   0.000   0.000
  0.000   0.000   0.000   0.000   0.000   0.000   0.000   0.000
  0.000   0.000   0.000   0.000   0.000   0.000   0.000   0.000
  0.000   0.000   0.000   0.000   0.000   0.000   0.000   0.000
  0.000   0.000   0.000   0.000   0.000   0.000   0.000   0.000
  0.000   0.000   0.000   0.000   0.000   0.000   0.000   0.000
  0.000   0.000   0.000   0.000   0.000   0.000   0.000   0.000
  0.000   0.000  -0.003   0.000   0.000   0.000   0.000   0.000
  0.000   0.000   0.000   0.000   0.000   0.000   0.000   0.000
  0.000   0.000  -0.003   0.000   0.000   0.000   0.000   0.000
  0.000   0.000   0.000   0.004   0.000   0.000   0.000   0.000
  0.000   0.000   0.000   0.000  -0.003   0.000   0.000   0.000
  0.000   0.000   0.000   0.000   0.000   0.000   0.000   0.000
  0.000   0.000   0.000   0.000   0.003   0.000   0.000   0.000
  0.000   0.000  -0.001   0.000   0.000   0.000   0.000   0.000
  0.000   0.000   0.000   0.000   0.000   0.000   0.000   0.000
  0.000   0.000  -0.001   0.000   0.000   0.000   0.000   0.000
  0.000   0.000   0.000   0.001   0.000   0.000   0.000   0.000
  0.000   0.000   0.000   0.000  -0.001   0.000   0.000   0.000
  0.000   0.000   0.000   0.000   0.000   0.000   0.000   0.000
  0.000   0.000   0.000   0.000   0.001   0.000   0.000   0.000
 total augmentation occupancy for first ion, spin component:           1
  2.589  -0.952   0.000   0.000   0.000   0.000   0.000   0.000   0.000   0.000   0.000   0.000   0.000   0.000   0.000   0.000
 -0.952   1.537   0.000   0.000   0.000   0.000   0.000   0.000   0.000   0.000   0.000   0.000   0.000   0.000   0.000   0.000
  0.000   0.000   2.050   0.000   0.000  -0.100   0.000   0.000   0.000   0.000   0.000   0.000   0.000   0.000   0.000   0.000
  0.000   0.000   0.000   2.050   0.000   0.000  -0.100   0.000   0.000   0.000   0.000   0.000   0.000   0.000   0.000   0.000
  0.000   0.000   0.000   0.000   2.050   0.000   0.000  -0.100   0.000   0.000   0.000   0.000   0.000   0.000   0.000   0.000
  0.000   0.000  -0.100   0.000   0.000   0.262   0.000   0.000   0.000   0.000   0.000   0.000   0.000   0.000   0.000   0.000
  0.000   0.000   0.000  -0.100   0.000   0.000   0.262   0.000   0.000   0.000   0.000   0.000   0.000   0.000   0.000   0.000
  0.000   0.000   0.000   0.000  -0.100   0.000   0.000   0.262   0.000   0.000   0.000   0.000   0.000   0.000   0.000   0.000
  0.000   0.000   0.000   0.000   0.000   0.000   0.000   0.000   0.174   0.000   0.000   0.000   0.000  -0.063   0.000   0.000
  0.000   0.000   0.000   0.000   0.000   0.000   0.000   0.000   0.000   0.174   0.000   0.000   0.000   0.000  -0.063   0.000
  0.000   0.000   0.000   0.000   0.000   0.000   0.000   0.000   0.000   0.000   0.301   0.000   0.000   0.000   0.000  -0.138
  0.000   0.000   0.000   0.000   0.000   0.000   0.000   0.000   0.000   0.000   0.000   0.174   0.000   0.000   0.000   0.000
  0.000   0.000   0.000   0.000   0.000   0.000   0.000   0.000   0.000   0.000   0.000   0.000   0.301   0.000   0.000   0.000
  0.000   0.000   0.000   0.000   0.000   0.000   0.000   0.000  -0.063   0.000   0.000   0.000   0.000   0.028   0.000   0.000
  0.000   0.000   0.000   0.000   0.000   0.000   0.000   0.000   0.000  -0.063   0.000   0.000   0.000   0.000   0.028   0.000
  0.000   0.000   0.000   0.000   0.000   0.000   0.000   0.000   0.000   0.000  -0.138   0.000   0.000   0.000   0.000   0.072
  0.000   0.000   0.000   0.000   0.000   0.000   0.000   0.000   0.000   0.000   0.000  -0.063   0.000   0.000   0.000   0.000
  0.000   0.000   0.000   0.000   0.000   0.000   0.000   0.000   0.000   0.000   0.000   0.000  -0.138   0.000   0.000   0.000
  0.000   0.000   0.012   0.000   0.000  -0.026   0.000   0.000   0.000   0.000   0.000   0.000   0.000   0.000   0.000   0.000
  0.000   0.000   0.000   0.000   0.000   0.000   0.000   0.000   0.000   0.000   0.000   0.000   0.000   0.000   0.000   0.000
  0.000   0.000   0.009   0.000   0.000  -0.020   0.000   0.000   0.000   0.000   0.000   0.000   0.000   0.000   0.000   0.000
  0.000   0.000   0.000  -0.015   0.000   0.000   0.032   0.000   0.000   0.000   0.000   0.000   0.000   0.000   0.000   0.000
  0.000   0.000   0.000   0.000   0.009   0.000   0.000  -0.020   0.000   0.000   0.000   0.000   0.000   0.000   0.000   0.000
  0.000   0.000   0.000   0.000   0.000   0.000   0.000   0.000   0.000   0.000   0.000   0.000   0.000   0.000   0.000   0.000
  0.000   0.000   0.000   0.000  -0.012   0.000   0.000   0.026   0.000   0.000   0.000   0.000   0.000   0.000   0.000   0.000
  0.000   0.000  -0.008   0.000   0.000   0.034   0.000   0.000   0.000   0.000   0.000   0.000   0.000   0.000   0.000   0.000
  0.000   0.000   0.000   0.000   0.000   0.000   0.000   0.000   0.000   0.000   0.000   0.000   0.000   0.000   0.000   0.000
  0.000   0.000  -0.006   0.000   0.000   0.026   0.000   0.000   0.000   0.000   0.000   0.000   0.000   0.000   0.000   0.000
  0.000   0.000   0.000   0.010   0.000   0.000  -0.042   0.000   0.000   0.000   0.000   0.000   0.000   0.000   0.000   0.000
  0.000   0.000   0.000   0.000  -0.006   0.000   0.000   0.026   0.000   0.000   0.000   0.000   0.000   0.000   0.000   0.000
  0.000   0.000   0.000   0.000   0.000   0.000   0.000   0.000   0.000   0.000   0.000   0.000   0.000   0.000   0.000   0.000
  0.000   0.000   0.000   0.000   0.008   0.000   0.000  -0.034   0.000   0.000   0.000   0.000   0.000   0.000   0.000   0.000
 total augmentation occupancy for first ion, spin component:           2
  0.001  -0.001   0.000   0.000   0.000   0.000   0.000   0.000   0.000   0.000   0.000   0.000   0.000   0.000   0.000   0.000
 -0.001   0.001   0.000   0.000   0.000   0.000   0.000   0.000   0.000   0.000   0.000   0.000   0.000   0.000   0.000   0.000
  0.000   0.000  -0.001   0.000   0.000   0.001   0.000   0.000   0.000   0.000   0.000   0.000   0.000   0.000   0.000   0.000
  0.000   0.000   0.000  -0.001   0.000   0.000   0.001   0.000   0.000   0.000   0.000   0.000   0.000   0.000   0.000   0.000
  0.000   0.000   0.000   0.000  -0.001   0.000   0.000   0.001   0.000   0.000   0.000   0.000   0.000   0.000   0.000   0.000
  0.000   0.000   0.001   0.000   0.000  -0.002   0.000   0.000   0.000   0.000   0.000   0.000   0.000   0.000   0.000   0.000
  0.000   0.000   0.000   0.001   0.000   0.000  -0.002   0.000   0.000   0.000   0.000   0.000   0.000   0.000   0.000   0.000
  0.000   0.000   0.000   0.000   0.001   0.000   0.000  -0.002   0.000   0.000   0.000   0.000   0.000   0.000   0.000   0.000
  0.000   0.000   0.000   0.000   0.000   0.000   0.000   0.000  -0.003   0.000   0.000   0.000   0.000   0.001   0.000   0.000
  0.000   0.000   0.000   0.000   0.000   0.000   0.000   0.000   0.000  -0.003   0.000   0.000   0.000   0.000   0.001   0.000
  0.000   0.000   0.000   0.000   0.000   0.000   0.000   0.000   0.000   0.000  -0.001   0.000   0.000   0.000   0.000   0.000
  0.000   0.000   0.000   0.000   0.000   0.000   0.000   0.000   0.000   0.000   0.000  -0.003   0.000   0.000   0.000   0.000
  0.000   0.000   0.000   0.000   0.000   0.000   0.000   0.000   0.000   0.000   0.000   0.000  -0.001   0.000   0.000   0.000
  0.000   0.000   0.000   0.000   0.000   0.000   0.000   0.000   0.001   0.000   0.000   0.000   0.000   0.000   0.000   0.000
  0.000   0.000   0.000   0.000   0.000   0.000   0.000   0.000   0.000   0.001   0.000   0.000   0.000   0.000   0.000   0.000
  0.000   0.000   0.000   0.000   0.000   0.000   0.000   0.000   0.000   0.000   0.000   0.000   0.000   0.000   0.000   0.000
  0.000   0.000   0.000   0.000   0.000   0.000   0.000   0.000   0.000   0.000   0.000   0.001   0.000   0.000   0.000   0.000
  0.000   0.000   0.000   0.000   0.000   0.000   0.000   0.000   0.000   0.000   0.000   0.000   0.000   0.000   0.000   0.000
  0.000   0.000   0.000   0.000   0.000   0.000   0.000   0.000   0.000   0.000   0.000   0.000   0.000   0.000   0.000   0.000
  0.000   0.000   0.000   0.000   0.000   0.000   0.000   0.000   0.000   0.000   0.000   0.000   0.000   0.000   0.000   0.000
  0.000   0.000   0.000   0.000   0.000   0.000   0.000   0.000   0.000   0.000   0.000   0.000   0.000   0.000   0.000   0.000
  0.000   0.000   0.000   0.000   0.000   0.000   0.000   0.000   0.000   0.000   0.000   0.000   0.000   0.000   0.000   0.000
  0.000   0.000   0.000   0.000   0.000   0.000   0.000   0.000   0.000   0.000   0.000   0.000   0.000   0.000   0.000   0.000
  0.000   0.000   0.000   0.000   0.000   0.000   0.000   0.000   0.000   0.000   0.000   0.000   0.000   0.000   0.000   0.000
  0.000   0.000   0.000   0.000   0.000   0.000   0.000   0.000   0.000   0.000   0.000   0.000   0.000   0.000   0.000   0.000
  0.000   0.000   0.000   0.000   0.000   0.000   0.000   0.000   0.000   0.000   0.000   0.000   0.000   0.000   0.000   0.000
  0.000   0.000   0.000   0.000   0.000   0.000   0.000   0.000   0.000   0.000   0.000   0.000   0.000   0.000   0.000   0.000
  0.000   0.000   0.000   0.000   0.000   0.000   0.000   0.000   0.000   0.000   0.000   0.000   0.000   0.000   0.000   0.000
  0.000   0.000   0.000   0.000   0.000   0.000   0.000   0.000   0.000   0.000   0.000   0.000   0.000   0.000   0.000   0.000
  0.000   0.000   0.000   0.000   0.000   0.000   0.000   0.000   0.000   0.000   0.000   0.000   0.000   0.000   0.000   0.000
  0.000   0.000   0.000   0.000   0.000   0.000   0.000   0.000   0.000   0.000   0.000   0.000   0.000   0.000   0.000   0.000
  0.000   0.000   0.000   0.000   0.000   0.000   0.000   0.000   0.000   0.000   0.000   0.000   0.000   0.000   0.000   0.000


------------------------ aborting loop because EDIFF is reached ----------------------------------------





 total charge

# of ion     s       p       d       f       tot
------------------------------------------------
  1        2.102   5.547   0.501   0.057   8.208
  2        0.540   0.159   8.871   0.000   9.571
------------------------------------------------
tot        2.643   5.707   9.373   0.057  17.780




 magnetization (x)

# of ion     s       p       d       f       tot
------------------------------------------------
  1        0.000  -0.001  -0.007   0.000  -0.009
  2        0.000  -0.002  -0.001   0.000  -0.003
------------------------------------------------
tot        0.000  -0.003  -0.009   0.000  -0.012


    CHARGE:  cpu time    3.96: real time    3.96
    FORLOC:  cpu time    0.01: real time    0.01
    FORNL :  cpu time    3.22: real time    3.22
    STRESS:  cpu time    5.81: real time    5.81
    FORCOR:  cpu time    0.35: real time    0.35
    FORHAR:  cpu time    0.04: real time    0.04
    MIXING:  cpu time    0.01: real time    0.01
    FORVDW:  cpu time    0.00: real time    0.00

  FORCE on cell =-STRESS in cart. coord.  units (eV):
  Direction    XX          YY          ZZ          XY          YZ          ZX
  --------------------------------------------------------------------------------------
  Alpha Z   115.64811   115.64811   115.64811
  Ewald    -505.55416  -505.55416  -505.55416     0.00000     0.00000     0.00000
  Hartree   131.74443   131.74443   131.74443     0.00000     0.00000     0.00000
  E(xc)    -106.35707  -106.35707  -106.35707     0.00000     0.00000     0.00000
  Local      44.47041    44.47041    44.47041     0.00002     0.00002     0.00002
  n-local    17.43109    16.54960    19.97456    -4.93524     3.97277    -2.78326
  augment    15.21652    15.21652    15.21652     0.00000     0.00000     0.00000
  Kinetic   284.27565   286.94122   289.06056     1.43749    -3.15143     1.43547
  Fock        0.00000     0.00000     0.00000     0.00000     0.00000     0.00000
  -------------------------------------------------------------------------------------
  Total      -0.08751    -0.08751    -0.08751     0.00000     0.00000     0.00000
  in kB      -2.02429    -2.02429    -2.02429     0.00000     0.00000     0.00000
  external pressure =       -2.02 kB  Pullay stress =        0.00 kB


 VOLUME and BASIS-vectors are now :
 -----------------------------------------------------------------------------
  energy-cutoff  :      249.80
  volume of cell :       69.26
      direct lattice vectors                 reciprocal lattice vectors
     0.000000000  3.259549072  3.259549072    -0.153395451  0.153395451  0.153395451
     3.259549072  0.000000000  3.259549072     0.153395451 -0.153395451  0.153395451
     3.259549072  3.259549072  0.000000000     0.153395451  0.153395451 -0.153395451

  length of vectors
     4.609698504  4.609698504  4.609698504     0.265688715  0.265688715  0.265688715


 FORCES acting on ions
    electron-ion (+dipol)            ewald-force                    non-local-force                 convergence-correction
 -----------------------------------------------------------------------------------------------
   -.323E-03 -.323E-03 -.323E-03   0.689E-03 0.689E-03 0.689E-03   0.127E-20 -.847E-21 0.632E-21   0.812E-07 0.812E-07 0.812E-07
   -.173E-02 -.173E-02 -.173E-02   -.689E-03 -.689E-03 -.689E-03   -.254E-20 0.169E-20 0.837E-21   -.145E-05 -.145E-05 -.145E-05
 -----------------------------------------------------------------------------------------------
   -.206E-02 -.206E-02 -.206E-02   -.243E-15 -.379E-15 -.272E-14   -.127E-20 0.847E-21 0.147E-20   -.137E-05 -.137E-05 -.137E-05


 POSITION                                       TOTAL-FORCE (eV/Angst)
 -----------------------------------------------------------------------------------
      0.00000      0.00000      0.00000         0.000000      0.000000      0.000000
      3.25956      3.25956      3.25956         0.000000      0.000000      0.000000
 -----------------------------------------------------------------------------------
    total drift:                               -0.002057     -0.002057     -0.002057


--------------------------------------------------------------------------------------------------------



  FREE ENERGIE OF THE ION-ELECTRON SYSTEM (eV)
  ---------------------------------------------------
  free  energy   TOTEN  =        -7.14173545 eV

  energy  without entropy=       -7.13185574  energy(sigma->0) =       -7.13844222

 d Force = 0.0000000E+00[ 0.000E+00, 0.000E+00]  d Energy = 0.2758253E-02-0.276E-02
 d Force = 0.0000000E+00[ 0.000E+00, 0.000E+00]  d Ewald  = 0.8161414E+01-0.816E+01


--------------------------------------------------------------------------------------------------------


    POTLOK:  cpu time    0.43: real time    0.43


--------------------------------------------------------------------------------------------------------




--------------------------------------------------------------------------------------------------------



 reached required accuracy - stopping structural energy minimisation
     LOOP+:  cpu time  271.52: real time  271.66
    4ORBIT:  cpu time    0.00: real time    0.00



 total charge

# of ion     s       p       d       f       tot
------------------------------------------------
  1        2.102   5.547   0.501   0.057   8.208
  2        0.540   0.159   8.871   0.000   9.571
------------------------------------------------
tot        2.643   5.707   9.373   0.057  17.780




 magnetization (x)

# of ion     s       p       d       f       tot
------------------------------------------------
  1        0.000  -0.001  -0.007   0.000  -0.009
  2        0.000  -0.002  -0.001   0.000  -0.003
------------------------------------------------
tot        0.000  -0.003  -0.009   0.000  -0.012



 total amount of memory used by VASP on root node   142468. kBytes
========================================================================

   base      :      30000. kBytes
   nonl-proj :      46048. kBytes
   grid      :      10266. kBytes
   one-center:        196. kBytes
   wavefun   :      55958. kBytes



 General timing and accounting informations for this job:
 ========================================================

                  Total CPU time used (sec):     1237.037
                            User time (sec):     1232.730
                          System time (sec):        4.307
                         Elapsed time (sec):     1239.486

                   Maximum memory used (kb):      243772.
                   Average memory used (kb):           0.

                          Minor page faults:        77636
                          Major page faults:            0
                 Voluntary context switches:          946
