  MPI-parallelism will be employed.
------------------------------------------------------------
          Invoking FHI-aims ...
          Version 120512
          Git rev. (modified): 25dbdc4 optimization of nonlocal force computation
          Compiled on 2012/12/30 at 16:09:54 on host hydra01.

          When using FHI-aims, please cite the following reference:

          Volker Blum, Ralf Gehrke, Felix Hanke, Paula Havu,
          Ville Havu, Xinguo Ren, Karsten Reuter, and Matthias Scheffler,
          'Ab Initio Molecular Simulations with Numeric Atom-Centered Orbitals: FHI-aims',
          Computer Physics Communications 180, 2175-2196 (2009)

------------------------------------------------------------

  Date     :  20130111, Time     :  142125.837
  Time zero on CPU 1             :   0.148009000000000E+00  s.
  Internal wall clock time zero  :           127146085.837  s.

  Using       16 parallel tasks.
  Task        0 on host hy0590 reporting.
  Task        1 on host hy0590 reporting.
  Task        2 on host hy0590 reporting.
  Task        3 on host hy0590 reporting.
  Task        4 on host hy0590 reporting.
  Task        5 on host hy0590 reporting.
  Task        6 on host hy0590 reporting.
  Task        7 on host hy0590 reporting.
  Task        8 on host hy0590 reporting.
  Task        9 on host hy0590 reporting.
  Task       10 on host hy0590 reporting.
  Task       11 on host hy0590 reporting.
  Task       12 on host hy0590 reporting.
  Task       13 on host hy0590 reporting.
  Task       14 on host hy0590 reporting.
  Task       15 on host hy0590 reporting.

  Performing system and environment tests:
  | Environment variable OMP_NUM_THREADS correctly set to 1.
  | Checking for scalapack...
  | Testing pdtran()...
  | All pdtran() tests passed.

  Obtaining array dimensions for all initial allocations:
  
  -----------------------------------------------------------------------
  Parsing control.in (first pass over file, find array dimensions only).
  The contents of control.in will be repeated verbatim below
  unless switched off by setting 'verbatim_writeout .false.' .
  in the first line of control.in .
  -----------------------------------------------------------------------
  
  ##################################################################################
  # 11.01.2013
  # tight , H Tier 2, C Tier 2
  ##################################################################################
  ##################################################################################
  # SCF Input
  ##################################################################################
  # Functional
    xc     pbe
    vdw_correction_hirshfeld .true.
  
  # Convergence
  sc_accuracy_rho 1.E-6
  sc_accuracy_eev 1.E-4
  sc_accuracy_etot 1.E-6
  sc_accuracy_forces 5.E-3
  #
  sc_iter_limit 400
  
  # relax geometry
  relax_geometry trm 8.E-3
  restart_relaxations .true.
  
  ################################################################################
  #
  #  FHI-aims code project
  # Volker Blum, Fritz Haber Institute Berlin, 2009
  #
  #  Suggested "tight" defaults for C atom (to be pasted into control.in file)
  #
  ################################################################################
    species        C
  #     global species definitions
      nucleus             6
      mass                12.0107
  #
      l_hartree           6
  #
      cut_pot             4.0  2.0  1.0
      basis_dep_cutoff    1e-4
  #
      radial_base         34 7.0
      radial_multiplier   2
      angular_grids specified
        division   0.2187   50
        division   0.4416  110
        division   0.6335  194
        division   0.7727  302
        division   0.8772  434
  #      division   0.9334  590
  #      division   0.9924  770
  #      division   1.0230  974
  #      division   1.5020 1202
  #     outer_grid  974
        outer_grid  434
  ################################################################################
  #
  #  Definition of "minimal" basis
  #
  ################################################################################
  #     valence basis states
      valence      2  s   2.
      valence      2  p   2.
  #     ion occupancy
      ion_occ      2  s   1.
      ion_occ      2  p   1.
  ################################################################################
  #
  #  Suggested additional basis functions. For production calculations,
  #  uncomment them one after another (the most important basis functions are
  #  listed first).
  #
  #  Constructed for dimers: 1.0 A, 1.25 A, 1.5 A, 2.0 A, 3.0 A
  #
  ################################################################################
  #  "First tier" - improvements: -1214.57 meV to -155.61 meV
       hydro 2 p 1.7
       hydro 3 d 6
       hydro 2 s 4.9
  #  "Second tier" - improvements: -67.75 meV to -5.23 meV
       hydro 4 f 9.8
       hydro 3 p 5.2
       hydro 3 s 4.3
       hydro 5 g 14.4
       hydro 3 d 6.2
  #  "Third tier" - improvements: -2.43 meV to -0.60 meV
  #     hydro 2 p 5.6
  #     hydro 2 s 1.4
  #     hydro 3 d 4.9
  #     hydro 4 f 11.2
  #  "Fourth tier" - improvements: -0.39 meV to -0.18 meV
  #     hydro 2 p 2.1
  #     hydro 5 g 16.4
  #     hydro 4 d 13.2
  #     hydro 3 s 13.6
  #     hydro 4 f 17.6
  #  Further basis functions - improvements: -0.08 meV and below
  #     hydro 3 s 2
  #     hydro 3 p 6
  #     hydro 4 d 20
  ################################################################################
  #
  #  FHI-aims code project
  # Volker Blum, Fritz Haber Institute Berlin, 2009
  #
  #  Suggested "tight" defaults for H atom (to be pasted into control.in file)
  #
  ################################################################################
    species        H
  #     global species definitions
      nucleus             1
      mass                1.00794
  #
      l_hartree           6
  #
      cut_pot             4.0  2.0  1.0
      basis_dep_cutoff    1e-4
  #
      radial_base         24 7.0
      radial_multiplier   2
      angular_grids       specified
        division   0.1930   50
        division   0.3175  110
        division   0.4293  194
        division   0.5066  302
        division   0.5626  434
  #      division   0.5922  590
  #      division   0.6227  974
  #      division   0.6868 1202
  #      outer_grid  770
        outer_grid  434
  ################################################################################
  #
  #  Definition of "minimal" basis
  #
  ################################################################################
  #     valence basis states
      valence      1  s   1.
  #     ion occupancy
      ion_occ      1  s   0.5
  ################################################################################
  #
  #  Suggested additional basis functions. For production calculations,
  #  uncomment them one after another (the most important basis functions are
  #  listed first).
  #
  #  Basis constructed for dimers: 0.5 A, 0.7 A, 1.0 A, 1.5 A, 2.5 A
  #
  ################################################################################
  #  "First tier" - improvements: -1014.90 meV to -62.69 meV
       hydro 2 s 2.1
       hydro 2 p 3.5
  #  "Second tier" - improvements: -12.89 meV to -1.83 meV
       hydro 1 s 0.85
       hydro 2 p 3.7
       hydro 2 s 1.2
       hydro 3 d 7
  #  "Third tier" - improvements: -0.25 meV to -0.12 meV
  #     hydro 4 f 11.2
  #     hydro 3 p 4.8
  #     hydro 4 d 9
  #     hydro 3 s 3.2
  
  -----------------------------------------------------------------------
  Completed first pass over input file control.in .
  -----------------------------------------------------------------------
  
  
  -----------------------------------------------------------------------
  Parsing geometry.in (first pass over file, find array dimensions only).
  The contents of geometry.in will be repeated verbatim below
  unless switched off by setting 'verbatim_writeout .false.' .
  in the first line of geometry.in .
  -----------------------------------------------------------------------
  
   # This is the geometry file from relaxed coordinates
  atom      -0.71243027      1.23396634      0.00000000 C
    constrain_relaxation z
  atom      -1.42486516      0.00000000      0.00000000 C
    constrain_relaxation z
  atom      -0.71243027     -1.23396634      0.00000000 C
    constrain_relaxation z
  atom       0.71243027     -1.23396634      0.00000000 C
    constrain_relaxation z
  atom       1.42486516      0.00000000      0.00000000 C
    constrain_relaxation z
  atom       0.71243027      1.23396634      0.00000000 C
    constrain_relaxation z
  atom      -1.42424233      2.46686049      0.00000000 C
    constrain_relaxation z
  atom      -2.84848846      0.00000000      0.00000000 C
    constrain_relaxation z
  atom      -1.42424233     -2.46686049      0.00000000 C
    constrain_relaxation z
  atom       1.42424233     -2.46686049      0.00000000 C
    constrain_relaxation z
  atom       2.84848846      0.00000000      0.00000000 C
    constrain_relaxation z
  atom       1.42424233      2.46686049      0.00000000 C
    constrain_relaxation z
  atom      -2.84580245      2.43648439      0.00000000 C
    constrain_relaxation z
  atom      -3.38895815      3.38280060      0.00000000 H
    constrain_relaxation z
  atom      -3.53296333     -1.24629587      0.00000000 C
    constrain_relaxation z
  atom      -4.62407474     -1.24352959      0.00000000 H
    constrain_relaxation z
  atom      -0.68715742     -3.68278568      0.00000000 C
    constrain_relaxation z
  atom      -1.23512609     -4.62632322      0.00000000 H
    constrain_relaxation z
  atom       2.84580245     -2.43648439      0.00000000 C
    constrain_relaxation z
  atom       3.38895815     -3.38280060      0.00000000 H
    constrain_relaxation z
  atom       3.53296333      1.24629587      0.00000000 C
    constrain_relaxation z
  atom       4.62407474      1.24352959      0.00000000 H
    constrain_relaxation z
  atom       0.68715742      3.68278568      0.00000000 C
    constrain_relaxation z
  atom       1.23512609      4.62632322      0.00000000 H
    constrain_relaxation z
  atom      -3.53296333      1.24629587      0.00000000 C
    constrain_relaxation z
  atom      -4.62407474      1.24352959      0.00000000 H
    constrain_relaxation z
  atom      -2.84580245     -2.43648439      0.00000000 C
    constrain_relaxation z
  atom      -3.38895815     -3.38280060      0.00000000 H
    constrain_relaxation z
  atom       0.68715742     -3.68278568      0.00000000 C
    constrain_relaxation z
  atom       1.23512609     -4.62632322      0.00000000 H
    constrain_relaxation z
  atom       3.53296333     -1.24629587      0.00000000 C
    constrain_relaxation z
  atom       4.62407474     -1.24352959      0.00000000 H
    constrain_relaxation z
  atom       2.84580245      2.43648439      0.00000000 C
    constrain_relaxation z
  atom       3.38895815      3.38280060      0.00000000 H
    constrain_relaxation z
  atom      -0.68715742      3.68278568      0.00000000 C
    constrain_relaxation z
  atom      -1.23512609      4.62632322      0.00000000 H
    constrain_relaxation z
  
  -----------------------------------------------------------------------
  Completed first pass over input file geometry.in .
  -----------------------------------------------------------------------
  
 
  Basic array size parameters: 
  | Number of species                 :        2
  | Number of atoms                   :       36
  | Max. basis fn. angular momentum   :        4
  | Max. atomic/ionic basis occupied n:        2
  | Max. number of basis fn. types    :        2
  | Max. radial fns per species/type  :        8
  | Max. logarithmic grid size        :     1277
  | Max. radial integration grid size :       69
  | Max. angular integration grid size:      434
  | Max. angular grid division number :        8
  | Radial grid for Hartree potential :     1277
  | Number of spin channels           :        1

------------------------------------------------------------
          Reading file control.in.
------------------------------------------------------------
  XC: Using PBE gradient-corrected functionals.
  Using non-empirical van der Waals correction (Hirshfeld partitioning):
  Convergence accuracy of self-consistent charge density: 0.1000E-05
  Convergence accuracy of sum of eigenvalues: 0.1000E-03
  Convergence accuracy of total energy: 0.1000E-05
  Convergence accuracy of forces: 0.5000E-02
  Maximum number of s.-c. iterations  :   400
  Geometry relaxation: Modified BFGS - TRM (trust radius method, i.e., trusted quadratic extrapolation).
  Convergence accuracy for geometry relaxation: Maximum force <   0.800000E-02 eV/A.
  Restarting and saving the relaxations.
 
  Reading configuration options for species C                   .
  | Found nuclear charge :   6.0000
  | Found atomic mass :    12.0107000000000      amu
  | Found l_max for Hartree potential  :   6
  | Found cutoff potl. onset [A], width [A], scale factor :    4.00000    2.00000    1.00000
  | Threshold for basis-dependent cutoff potential is   0.100000E-03
  | Found data for basic radial integration grid :    34 points, outermost radius =    7.000 A
  | Found multiplier for basic radial grid :   2
  | Found angular grid specification: user-specified.
  | Specified grid contains     6 separate shells.
  | Check grid settings after all constraints further below.
  | Found free-atom valence shell :  2 s   2.000
  | Found free-atom valence shell :  2 p   2.000
  | No ionic wave fns used. Skipping ion_occ.
  | No ionic wave fns used. Skipping ion_occ.
  | Found hydrogenic basis function :  2 p   1.700
  | Found hydrogenic basis function :  3 d   6.000
  | Found hydrogenic basis function :  2 s   4.900
  | Found hydrogenic basis function :  4 f   9.800
  | Found hydrogenic basis function :  3 p   5.200
  | Found hydrogenic basis function :  3 s   4.300
  | Found hydrogenic basis function :  5 g  14.400
  | Found hydrogenic basis function :  3 d   6.200
  Species C                   : Missing cutoff potential type.
  Defaulting to exp(1/x)/(1-x)^2 type cutoff potential.
  Species C : No 'logarithmic' tag. Using default grid for free atom:
  | Default logarithmic grid data [bohr] : 0.1000E-03 0.1000E+03 0.1012E+01
  Species C : On-site basis accuracy parameter (for Gram-Schmidt orthonormalisation) not specified.
  Using default value basis_acc =  0.1000000E-03.
  Species C                   : Using default innermost maximum threshold i_radial=  2 for radial functions.
  Species C                   : Default cutoff onset for free atom density etc. : 0.40000000E+01 AA.
  Species C                   : Basic radial grid will be enhanced according to radial_multiplier =   2, to contain    69 grid points.
 
  Reading configuration options for species H                   .
  | Found nuclear charge :   1.0000
  | Found atomic mass :    1.00794000000000      amu
  | Found l_max for Hartree potential  :   6
  | Found cutoff potl. onset [A], width [A], scale factor :    4.00000    2.00000    1.00000
  | Threshold for basis-dependent cutoff potential is   0.100000E-03
  | Found data for basic radial integration grid :    24 points, outermost radius =    7.000 A
  | Found multiplier for basic radial grid :   2
  | Found angular grid specification: user-specified.
  | Specified grid contains     6 separate shells.
  | Check grid settings after all constraints further below.
  | Found free-atom valence shell :  1 s   1.000
  | No ionic wave fns used. Skipping ion_occ.
  | Found hydrogenic basis function :  2 s   2.100
  | Found hydrogenic basis function :  2 p   3.500
  | Found hydrogenic basis function :  1 s   0.850
  | Found hydrogenic basis function :  2 p   3.700
  | Found hydrogenic basis function :  2 s   1.200
  | Found hydrogenic basis function :  3 d   7.000
  Species H                   : Missing cutoff potential type.
  Defaulting to exp(1/x)/(1-x)^2 type cutoff potential.
  Species H : No 'logarithmic' tag. Using default grid for free atom:
  | Default logarithmic grid data [bohr] : 0.1000E-03 0.1000E+03 0.1012E+01
  Species H : On-site basis accuracy parameter (for Gram-Schmidt orthonormalisation) not specified.
  Using default value basis_acc =  0.1000000E-03.
  Species H                   : Using default innermost maximum threshold i_radial=  2 for radial functions.
  Species H                   : Default cutoff onset for free atom density etc. : 0.40000000E+01 AA.
  Species H                   : Basic radial grid will be enhanced according to radial_multiplier =   2, to contain    49 grid points.
 
  Finished reading input file 'control.in'. Consistency checks are next.
 
  Target number of points in a grid batch is not set. Defaulting to  100
  Method for grid partitioning is not set. Defaulting to parallel hash+maxmin partitioning.
  Batch size limit is not set. Defaulting to    200
  By default, will store active basis functions for each batch.
  If in need of memory, prune_basis_once .false. can be used to disable this option.
  communication_type for Hartree potential was not specified.
  Defaulting to calc_hartree .
  Defaulting to Pulay charge density mixer.
  Pulay mixer: Number of relevant iterations not set.
  Defaulting to    8 iterations.
  Pulay mixer: Number of initial linear mixing iterations not set.
  Defaulting to    0 iterations.
  Work space size for distributed Hartree potential not set.
  Defaulting to   0.200000E+03 MB.
  Mixing parameter for charge density mixing has not been set.
  Using default: charge_mix_param =     0.2000.
  Algorithm-dependent basis array size parameters:
  | n_max_pulay                         :        8
  No maximum number of relaxation steps, defaulting to     1000
  Default initial Hessian is Lindh matrix (thres = 15.00) plus  0.200000E+01 eV/A^2 times unity.
  No maximum energy tolerance for TRM/BFGS moves, defaulting to   0.200000E-03
  No harmonic length scale. Defaulting to   0.250000E-01 A.
  No trust radius initializer. Defaulting to   0.200000E+00 A.
  Required force accuracy for relaxation overrides required scf force convergence accuracy.
  Defaulting to 0.8000E-03 eV/A.
  Handling of forces: Unphysical translation and rotation will be removed from forces.
  No accuracy limit for integral partition fn. given. Defaulting to 0.1000E-14.
  No threshold value for u(r) in integrations given. Defaulting to 0.1000E-05.
  No occupation type (smearing scheme) given. Defaulting to Gaussian broadening, width = 0.1000E-01 eV.
  No accuracy for occupation numbers given. Defaulting to 0.1000E-07.
  No threshold value for occupation numbers given. Defaulting to 0.0000E+00.
  No accuracy for fermi level given. Defaulting to 0.1000E-19.
  Maximum # of iterations to find E_F not set. Defaulting to  200.
  Preferred method for the eigenvalue solver ('KS_method') not specified in 'control.in'.
  Calling blacs routine to test compilation state
  Since scalapack support is enabled, defaulting to 'elpa'.
  Will not use alltoall communication since running on < 1024 CPUs.
  Threshold for basis singularities not set.
  Default threshold for basis singularities: 0.1000E-04
  partition_type (choice of integration weights) for integrals was not specified.
  | Using a version of the partition function of Stratmann and coworkers ('stratmann_smoother').
  | At each grid point, the set of atoms used to build the partition table is smoothly restricted to
  | only those atoms whose free-atom density would be non-zero at that grid point.
  Partitioning for Hartree potential was not defined. Using partition_type for integrals.
  | Adjusted default value of keyword multip_moments_threshold to:       0.10000000E-11
  | This value may affect high angular momentum components of the Hartree potential in periodic systems.
  Spin handling was not defined in control.in. Defaulting to unpolarized case.
  No q(lm)/r^(l+1) cutoff set for long-range Hartree potential.
  | Using default value of  0.100000E-09 .
  | Verify using the multipole_threshold keyword.
  Defaulting to new monopole extrapolation.
  Density update method: automatic selection selected.
------------------------------------------------------------


------------------------------------------------------------
          Reading geometry description geometry.in.
------------------------------------------------------------
  Found relaxation constraint for atom      1: z coordinate fixed.
  Found relaxation constraint for atom      2: z coordinate fixed.
  Found relaxation constraint for atom      3: z coordinate fixed.
  Found relaxation constraint for atom      4: z coordinate fixed.
  Found relaxation constraint for atom      5: z coordinate fixed.
  Found relaxation constraint for atom      6: z coordinate fixed.
  Found relaxation constraint for atom      7: z coordinate fixed.
  Found relaxation constraint for atom      8: z coordinate fixed.
  Found relaxation constraint for atom      9: z coordinate fixed.
  Found relaxation constraint for atom     10: z coordinate fixed.
  Found relaxation constraint for atom     11: z coordinate fixed.
  Found relaxation constraint for atom     12: z coordinate fixed.
  Found relaxation constraint for atom     13: z coordinate fixed.
  Found relaxation constraint for atom     14: z coordinate fixed.
  Found relaxation constraint for atom     15: z coordinate fixed.
  Found relaxation constraint for atom     16: z coordinate fixed.
  Found relaxation constraint for atom     17: z coordinate fixed.
  Found relaxation constraint for atom     18: z coordinate fixed.
  Found relaxation constraint for atom     19: z coordinate fixed.
  Found relaxation constraint for atom     20: z coordinate fixed.
  Found relaxation constraint for atom     21: z coordinate fixed.
  Found relaxation constraint for atom     22: z coordinate fixed.
  Found relaxation constraint for atom     23: z coordinate fixed.
  Found relaxation constraint for atom     24: z coordinate fixed.
  Found relaxation constraint for atom     25: z coordinate fixed.
  Found relaxation constraint for atom     26: z coordinate fixed.
  Found relaxation constraint for atom     27: z coordinate fixed.
  Found relaxation constraint for atom     28: z coordinate fixed.
  Found relaxation constraint for atom     29: z coordinate fixed.
  Found relaxation constraint for atom     30: z coordinate fixed.
  Found relaxation constraint for atom     31: z coordinate fixed.
  Found relaxation constraint for atom     32: z coordinate fixed.
  Found relaxation constraint for atom     33: z coordinate fixed.
  Found relaxation constraint for atom     34: z coordinate fixed.
  Found relaxation constraint for atom     35: z coordinate fixed.
  Found relaxation constraint for atom     36: z coordinate fixed.
 * Warning! You did not set the 'relativistic' flag in input file 'control.in'.
 * Since you are not attempting to treat any elements beyond Ca(Z=20), FHI-aims
 * will default to 'relativistic none'.
 * You must ensure that this is really what you want!!
 * For example, DO NOT compute total-energy differences between results from
 * different settings of the 'relativistic' flag.
  Input structure read successfully.
  The structure contains       36 atoms,  and a total of        156.000 electrons.

  Input geometry:
  | No unit cell requested.
  | Atomic structure:
  |       Atom                x [A]            y [A]            z [A]
  |    1: Species C         -0.712430         1.233966         0.000000
  |    2: Species C         -1.424865         0.000000         0.000000
  |    3: Species C         -0.712430        -1.233966         0.000000
  |    4: Species C          0.712430        -1.233966         0.000000
  |    5: Species C          1.424865         0.000000         0.000000
  |    6: Species C          0.712430         1.233966         0.000000
  |    7: Species C         -1.424242         2.466860         0.000000
  |    8: Species C         -2.848488         0.000000         0.000000
  |    9: Species C         -1.424242        -2.466860         0.000000
  |   10: Species C          1.424242        -2.466860         0.000000
  |   11: Species C          2.848488         0.000000         0.000000
  |   12: Species C          1.424242         2.466860         0.000000
  |   13: Species C         -2.845802         2.436484         0.000000
  |   14: Species H         -3.388958         3.382801         0.000000
  |   15: Species C         -3.532963        -1.246296         0.000000
  |   16: Species H         -4.624075        -1.243530         0.000000
  |   17: Species C         -0.687157        -3.682786         0.000000
  |   18: Species H         -1.235126        -4.626323         0.000000
  |   19: Species C          2.845802        -2.436484         0.000000
  |   20: Species H          3.388958        -3.382801         0.000000
  |   21: Species C          3.532963         1.246296         0.000000
  |   22: Species H          4.624075         1.243530         0.000000
  |   23: Species C          0.687157         3.682786         0.000000
  |   24: Species H          1.235126         4.626323         0.000000
  |   25: Species C         -3.532963         1.246296         0.000000
  |   26: Species H         -4.624075         1.243530         0.000000
  |   27: Species C         -2.845802        -2.436484         0.000000
  |   28: Species H         -3.388958        -3.382801         0.000000
  |   29: Species C          0.687157        -3.682786         0.000000
  |   30: Species H          1.235126        -4.626323         0.000000
  |   31: Species C          3.532963        -1.246296         0.000000
  |   32: Species H          4.624075        -1.243530         0.000000
  |   33: Species C          2.845802         2.436484         0.000000
  |   34: Species H          3.388958         3.382801         0.000000
  |   35: Species C         -0.687157         3.682786         0.000000
  |   36: Species H         -1.235126         4.626323         0.000000
  |

  Number of empty states per atom not set in control.in - providing a guess from actual geometry.
  | Total number of empty states used during s.c.f. cycle:       90
  If you use a very high smearing, use empty_states (per atom!) in control.in to increase this value.

  Structure-dependent array size parameters: 
  | Maximum number of distinct radial functions  :       18
  | Maximum number of basis functions            :     1116
  | Number of Kohn-Sham states (occupied + empty):      168
------------------------------------------------------------

------------------------------------------------------------
          Preparing all fixed parts of the calculation.
------------------------------------------------------------
  Determining machine precision:
    2.225073858507201E-308
  Setting up grids for atomic and cluster calculations.

  Creating wave function, potential, and density for free atoms.

  Species: C

  List of occupied orbitals and eigenvalues:
    n    l              occ      energy [Ha]    energy [eV]
    1    0           2.0000       -10.041232      -273.2358
    2    0           2.0000        -0.504327       -13.7234
    2    1           2.0000        -0.193750        -5.2722


  Species: H

  List of occupied orbitals and eigenvalues:
    n    l              occ      energy [Ha]    energy [eV]
    1    0           1.0000        -0.238382        -6.4867

  Creating fixed part of basis set: Ionic, confined, hydrogenic.
 
  C                    hydrogenic:
 
  List of hydrogenic basis orbitals: 
    n    l      effective z      eigenvalue [eV]  inner max. [A]     outer max. [A]     outer radius [A]   
    2    1         1.700000        -9.8152           1.245706           1.245706           5.401630
    3    2         6.000000       -54.4226           0.792453           0.792453           4.178599
    2    0         4.900000       -81.6681           0.082559           0.562749           3.353238
    4    3         9.800000       -81.6681           0.863254           0.863254           4.028125
    3    1         5.200000       -40.8774           0.305389           1.215618           4.898362
    3    0         4.300000       -27.9508           0.091041           1.610311           5.401630
    5    4        14.400000      -112.8510           0.917666           0.917666           3.883070
    3    2         6.200000       -58.1113           0.763917           0.763917           4.077671
 
 
  H                    hydrogenic:
 
  List of hydrogenic basis orbitals: 
    n    l      effective z      eigenvalue [eV]  inner max. [A]     outer max. [A]     outer radius [A]   
    2    0         2.100000       -14.9965           0.193243           1.317208           5.373006
    2    1         3.500000       -41.6672           0.602369           0.602369           4.056063
    1    0         0.850000        -9.8292           0.624871           0.624871           5.373006
    2    1         3.700000       -46.5653           0.573622           0.573622           3.910002
    2    0         1.200000        -4.5995           0.334980           2.228188           5.505995
    3    2         7.000000       -74.0753           0.680699           0.680699           3.769201
 

  Adding cutoff potential to free-atom effective potential.
  Creating atomic-like basis functions for current effective potential.

  Species C                   :

  List of atomic basis orbitals and eigenvalues:
    n    l      energy [Ha]    energy [eV]    outer radius [A]
    1    0       -10.041232      -273.2358       1.934409
    2    0        -0.504327       -13.7234       5.271162
    2    1        -0.193750        -5.2722       5.401630


  Species H                   :

  List of atomic basis orbitals and eigenvalues:
    n    l      energy [Ha]    energy [eV]    outer radius [A]
    1    0        -0.238382        -6.4867       5.373006

  Assembling full basis from fixed parts.
  | Species C :   atomic orbital   1 s accepted.
  | Species C :    hydro orbital   2 s accepted.
  | Species C :   atomic orbital   2 s accepted.
  | Species C :    hydro orbital   3 s accepted.
  | Species C :    hydro orbital   3 p accepted.
  | Species C :   atomic orbital   2 p accepted.
  | Species C :    hydro orbital   2 p accepted.
  | Species C :    hydro orbital   3 d accepted.
  | Species C :    hydro orbital   3 d accepted.
  | Species C :    hydro orbital   4 f accepted.
  | Species C :    hydro orbital   5 g accepted.
  | Species H :   atomic orbital   1 s accepted.
  | Species H :    hydro orbital   2 s accepted.
  | Species H :    hydro orbital   1 s accepted.
  | Species H :    hydro orbital   2 s accepted.
  | Species H :    hydro orbital   2 p accepted.
  | Species H :    hydro orbital   2 p accepted.
  | Species H :    hydro orbital   3 d accepted.
 
  Basis size parameters after reduction:
  | Total number of radial functions:       18
  | Total number of basis functions :     1116
 
  Preparing densities etc. for the partition functions (integrals / Hartree potential).

  Preparations completed.
  max(cpu_time)          :      0.188 s.
  Wall clock time (cpu1) :      0.388 s.
------------------------------------------------------------

------------------------------------------------------------
          Begin self-consistency loop: Initialization.

          Date     :  20130111, Time     :  142126.601
------------------------------------------------------------

  Initializing index lists of integration centers etc. from given atomic structure:
  | Number of centers in hartree potential         :        36
  | Number of centers in hartree multipole         :        36
  | Number of centers in electron density summation:        36
  | Number of centers in basis integrals           :        36
  | Number of centers in integrals                 :        36
  Initializing relaxation algorithms.
  Using modified Scalapack Eigenvalue solver (ELPA)
  * Using 16 tasks for Scalapack Eigenvalue solver.
  Detailed listing of tasks and assigned k-points:
  (for non-periodic systems, the "k-point" denotes an internal label only)
   Task     0 k-point     1 on hy0590
   Task     1 k-point     1 on hy0590
   Task     2 k-point     1 on hy0590
   Task     3 k-point     1 on hy0590
   Task     4 k-point     1 on hy0590
   Task     5 k-point     1 on hy0590
   Task     6 k-point     1 on hy0590
   Task     7 k-point     1 on hy0590
   Task     8 k-point     1 on hy0590
   Task     9 k-point     1 on hy0590
   Task    10 k-point     1 on hy0590
   Task    11 k-point     1 on hy0590
   Task    12 k-point     1 on hy0590
   Task    13 k-point     1 on hy0590
   Task    14 k-point     1 on hy0590
   Task    15 k-point     1 on hy0590
  Tasks:    16 split into      4 X      4 BLACS grid
  Calculating blocksize based on n_basis =         1116 max_nprow =            4 max_npcol =            4
  Scalapack blocksize set to:           16
  Required Scalapack workspace - INTEGER:            1 REAL:             1
  Partitioning the integration grid into batches with parallel hashing+maxmin method.
  | Number of batches:     5275
  | Maximal batch size:     158
  | Minimal batch size:      65
  | Average batch size:     115.123
  | Standard deviation of batch sizes:      35.096

  Integration load balanced across    16 MPI tasks.
  Work distribution over tasks is as follows:
  Task     0 has      37991 integration points.
  Task     1 has      37995 integration points.
  Task     2 has      37964 integration points.
  Task     3 has      37917 integration points.
  Task     4 has      37910 integration points.
  Task     5 has      38007 integration points.
  Task     6 has      37913 integration points.
  Task     7 has      37913 integration points.
  Task     8 has      38000 integration points.
  Task     9 has      37995 integration points.
  Task    10 has      37900 integration points.
  Task    11 has      37903 integration points.
  Task    12 has      37990 integration points.
  Task    13 has      37908 integration points.
  Task    14 has      37967 integration points.
  Task    15 has      37999 integration points.
  Initializing partition tables, free-atom densities, potentials, etc. across the integration grid (initialize_grid_storage).
  | initialize_grid_storage: Actual outermost partition radius vs. multipole_radius_free
  | (-- VB: in principle, multipole_radius_free should be larger, hence this output)
  | Species        1: outer_partition_radius =              6.000000000000000 AA, multipole_radius_free =              6.029870734432609 AA.
  | Species        2: outer_partition_radius =              6.000000000000000 AA, multipole_radius_free =              6.071692442739658 AA.
  | Original list of interatomic distances with          36 x         36 entries is created.
  | Net number of integration points:   607272
  | of which are non-zero points    :   485332
  Obtaining max. number of non-zero basis functions in each batch (get_n_compute_maxes).
  | Maximal number of non-zero basis functions:      958 in task     0
  | Maximal number of non-zero basis functions:      984 in task     1
  | Maximal number of non-zero basis functions:      975 in task     2
  | Maximal number of non-zero basis functions:      974 in task     3
  | Maximal number of non-zero basis functions:      973 in task     4
  | Maximal number of non-zero basis functions:      968 in task     5
  | Maximal number of non-zero basis functions:      969 in task     6
  | Maximal number of non-zero basis functions:      978 in task     7
  | Maximal number of non-zero basis functions:      970 in task     8
  | Maximal number of non-zero basis functions:      973 in task     9
  | Maximal number of non-zero basis functions:      984 in task    10
  | Maximal number of non-zero basis functions:      974 in task    11
  | Maximal number of non-zero basis functions:      969 in task    12
  | Maximal number of non-zero basis functions:      969 in task    13
  | Maximal number of non-zero basis functions:      975 in task    14
  | Maximal number of non-zero basis functions:      975 in task    15
  Selecting the method for density update.
  Loop over occupied states selected for charge density update.
  Integrating Hamiltonian matrix: batch-based integration.
  Time summed over all CPUs for integration: real work       41.104 s, elapsed       42.378 s
  Integrating overlap matrix.
  Time summed over all CPUs for integration: real work       24.445 s, elapsed       25.392 s
  Deallocating overlap matrix.

  Updating Kohn-Sham eigenvalues, eigenvectors, occupation numbers, and Fermi level.
  Solving generalized eigenproblem
  Solving real symmetric generalised eigenvalue problem by standard ScaLAPACK.
  Transforming overlap matrix with ScaLAPACK and checking for singularities.
  : Overlap matrix is nonsingular, using Cholesky decomposition
  | Lowest eigenvalue:  0.897843E-04
  Factoring overlap matrix with Cholesky decomposition
  Using Cholesky factor for transformation
  Using 1-stage real ELPA solver
  Determining occupation numbers for Kohn-Sham eigenstates.
  | Chemical potential (Fermi level) in eV                 : -.91367695E+01
  | Error in electron count due to remaining E_F inaccuracy: 0.00000000E+00
  | Maximum occupation number of highest empty state:  0.00E+00

  Writing Kohn-Sham eigenvalues.

  State    Occupation    Eigenvalue [Ha]    Eigenvalue [eV]
      1       2.00000         -10.160816         -276.48988
      2       2.00000         -10.160814         -276.48981
      3       2.00000         -10.160813         -276.48979
      4       2.00000         -10.160808         -276.48964
      5       2.00000         -10.160807         -276.48963
      6       2.00000         -10.160804         -276.48955
      7       2.00000         -10.160334         -276.47675
      8       2.00000         -10.160330         -276.47666
      9       2.00000         -10.160330         -276.47664
     10       2.00000         -10.160324         -276.47647
     11       2.00000         -10.160323         -276.47646
     12       2.00000         -10.160320         -276.47637
     13       2.00000         -10.156862         -276.38227
     14       2.00000         -10.156799         -276.38057
     15       2.00000         -10.156799         -276.38057
     16       2.00000         -10.156746         -276.37912
     17       2.00000         -10.156746         -276.37912
     18       2.00000         -10.156735         -276.37881
     19       2.00000         -10.156550         -276.37379
     20       2.00000         -10.156459         -276.37130
     21       2.00000         -10.156459         -276.37130
     22       2.00000         -10.156203         -276.36433
     23       2.00000         -10.156202         -276.36433
     24       2.00000         -10.156059         -276.36043
     25       2.00000          -1.023700          -27.85629
     26       2.00000          -0.991859          -26.98985
     27       2.00000          -0.991858          -26.98984
     28       2.00000          -0.949944          -25.84928
     29       2.00000          -0.949943          -25.84926
     30       2.00000          -0.932302          -25.36923
     31       2.00000          -0.910013          -24.76271
     32       2.00000          -0.888987          -24.19055
     33       2.00000          -0.873684          -23.77415
     34       2.00000          -0.873684          -23.77415
     35       2.00000          -0.847881          -23.07203
     36       2.00000          -0.847881          -23.07203
     37       2.00000          -0.773799          -21.05614
     38       2.00000          -0.773798          -21.05612
     39       2.00000          -0.771392          -20.99064
     40       2.00000          -0.771391          -20.99063
     41       2.00000          -0.765224          -20.82280
     42       2.00000          -0.700813          -19.07009
     43       2.00000          -0.693163          -18.86193
     44       2.00000          -0.681494          -18.54439
     45       2.00000          -0.677630          -18.43924
     46       2.00000          -0.677629          -18.43922
     47       2.00000          -0.674148          -18.34451
     48       2.00000          -0.622927          -16.95071
     49       2.00000          -0.622926          -16.95068
     50       2.00000          -0.617519          -16.80355
     51       2.00000          -0.617519          -16.80354
     52       2.00000          -0.596334          -16.22707
     53       2.00000          -0.596333          -16.22704
     54       2.00000          -0.572445          -15.57701
     55       2.00000          -0.569269          -15.49060
     56       2.00000          -0.566935          -15.42709
     57       2.00000          -0.566935          -15.42709
     58       2.00000          -0.560392          -15.24904
     59       2.00000          -0.560392          -15.24903
     60       2.00000          -0.545286          -14.83798
     61       2.00000          -0.533116          -14.50681
     62       2.00000          -0.521189          -14.18227
     63       2.00000          -0.514082          -13.98888
     64       2.00000          -0.510320          -13.88652
     65       2.00000          -0.510320          -13.88651
     66       2.00000          -0.509043          -13.85176
     67       2.00000          -0.509042          -13.85175
     68       2.00000          -0.479382          -13.04466
     69       2.00000          -0.479381          -13.04462
     70       2.00000          -0.462781          -12.59292
     71       2.00000          -0.462781          -12.59291
     72       2.00000          -0.449020          -12.21846
     73       2.00000          -0.411705          -11.20306
     74       2.00000          -0.409711          -11.14881
     75       2.00000          -0.394673          -10.73961
     76       2.00000          -0.394673          -10.73960
     77       2.00000          -0.357172           -9.71914
     78       2.00000          -0.357172           -9.71913
     79       0.00000          -0.251967           -6.85637
     80       0.00000          -0.251966           -6.85635
     81       0.00000          -0.215165           -5.85495
     82       0.00000          -0.215165           -5.85493
     83       0.00000          -0.198837           -5.41064
     84       0.00000          -0.190009           -5.17042
     85       0.00000          -0.144748           -3.93878
     86       0.00000          -0.124296           -3.38227
     87       0.00000          -0.124296           -3.38226
     88       0.00000          -0.072008           -1.95942
     89       0.00000          -0.059105           -1.60832
     90       0.00000          -0.059104           -1.60830
     91       0.00000          -0.048050           -1.30750
     92       0.00000          -0.048049           -1.30749
     93       0.00000          -0.044918           -1.22228
     94       0.00000          -0.044910           -1.22206
     95       0.00000          -0.025031           -0.68113
     96       0.00000          -0.019003           -0.51711
     97       0.00000          -0.017608           -0.47914
     98       0.00000          -0.014657           -0.39883
     99       0.00000          -0.014654           -0.39875
    100       0.00000          -0.006322           -0.17202
    101       0.00000          -0.006321           -0.17200
    102       0.00000          -0.006100           -0.16598
    103       0.00000           0.012408            0.33765
    104       0.00000           0.012420            0.33796
    105       0.00000           0.028518            0.77601
    106       0.00000           0.029539            0.80380
    107       0.00000           0.034112            0.92824
    108       0.00000           0.034123            0.92853
    109       0.00000           0.035372            0.96252
    110       0.00000           0.035376            0.96264
    111       0.00000           0.044294            1.20530
    112       0.00000           0.045746            1.24482
    113       0.00000           0.047140            1.28275
    114       0.00000           0.051486            1.40100
    115       0.00000           0.051488            1.40105
    116       0.00000           0.057626            1.56809
    117       0.00000           0.057628            1.56814
    118       0.00000           0.065105            1.77161
    119       0.00000           0.065112            1.77180
    120       0.00000           0.071029            1.93279
    121       0.00000           0.071038            1.93305
    122       0.00000           0.081199            2.20954
    123       0.00000           0.094783            2.57918
    124       0.00000           0.097666            2.65764
    125       0.00000           0.098614            2.68342
    126       0.00000           0.098618            2.68354
    127       0.00000           0.103357            2.81248
    128       0.00000           0.103358            2.81251
    129       0.00000           0.111738            3.04056
    130       0.00000           0.111754            3.04098
    131       0.00000           0.118086            3.21329
    132       0.00000           0.122704            3.33895
    133       0.00000           0.133113            3.62220
    134       0.00000           0.133116            3.62227
    135       0.00000           0.138161            3.75956
    136       0.00000           0.139682            3.80094
    137       0.00000           0.146282            3.98054
    138       0.00000           0.147055            4.00157
    139       0.00000           0.150326            4.09058
    140       0.00000           0.150341            4.09100
    141       0.00000           0.151454            4.12127
    142       0.00000           0.151474            4.12182
    143       0.00000           0.160724            4.37353
    144       0.00000           0.160736            4.37384
    145       0.00000           0.162949            4.43406
    146       0.00000           0.162953            4.43418
    147       0.00000           0.167667            4.56244
    148       0.00000           0.176899            4.81368
    149       0.00000           0.186237            5.06777
    150       0.00000           0.192078            5.22671
    151       0.00000           0.192080            5.22676
    152       0.00000           0.192871            5.24828
    153       0.00000           0.192899            5.24906
    154       0.00000           0.205627            5.59538
    155       0.00000           0.212017            5.76929
    156       0.00000           0.216607            5.89417
    157       0.00000           0.216625            5.89466
    158       0.00000           0.221120            6.01698
    159       0.00000           0.223293            6.07612
    160       0.00000           0.223319            6.07682
    161       0.00000           0.233586            6.35621
    162       0.00000           0.233956            6.36626
    163       0.00000           0.243640            6.62979
    164       0.00000           0.243664            6.63044
    165       0.00000           0.258443            7.03259
    166       0.00000           0.258449            7.03274
    167       0.00000           0.261928            7.12742
    168       0.00000           0.267190            7.27061

  Highest occupied state (VBM) at     -9.71913259 eV
  | Occupation number:      2.00000000

  Lowest unoccupied state (CBM) at    -6.85636985 eV
  | Occupation number:      0.00000000

  Overall HOMO-LUMO gap:      2.86276274 eV.
  Calculating total energy contributions from superposition of free atom densities.

  Total energy components:
  | Sum of eigenvalues            :        -557.45686264 Ha      -15169.17303147 eV
  | XC energy correction          :        -131.49853046 Ha       -3578.25707343 eV
  | XC potential correction       :         168.90873131 Ha        4596.24043307 eV
  | Free-atom electrostatic energy:        -401.91227988 Ha      -10936.58958300 eV
  | Hartree energy correction     :           0.00000000 Ha           0.00000000 eV
  | van der Waals energy corr.    :           0.00000000 Ha           0.00000000 eV
  | Entropy correction            :           0.00000000 Ha           0.00000000 eV
  | ---------------------------
  | Total energy                  :        -921.95894166 Ha      -25087.77925484 eV
  | Total energy, T -> 0          :        -921.95894166 Ha      -25087.77925484 eV  <-- only rely on this value for actual (periodic) metals
  | Electronic free energy        :        -921.95894166 Ha      -25087.77925484 eV

  Derived energy quantities:
  | Kinetic energy                :         913.20962582 Ha       24849.69825732 eV
  | Electrostatic energy          :       -1703.67003703 Ha      -46359.22043873 eV
  | Energy correction for multipole
  | error in Hartree potential    :           0.00000000 Ha           0.00000000 eV
  | Sum of eigenvalues per atom                           :        -421.36591754 eV
  | Total energy (T->0) per atom                          :        -696.88275708 eV  <-- only rely on this value for actual (periodic) metals
  | Electronic free energy per atom                       :        -696.88275708 eV
  Initialize hartree_potential_storage
  Max. number of atoms included in rho_multipole:           36

  End scf initialization - timings             :  max(cpu_time)    wall_clock(cpu1)
  | Time for scf. initialization               :        5.748 s           6.030 s
  | Boundary condition initialization          :        0.004 s           0.023 s
  | Relaxation initialization                  :        0.032 s           0.058 s
  | Integration                                :        4.252 s           4.302 s
  | Solution of K.-S. eqns.                    :        0.248 s           0.319 s
  | Grid partitioning                          :        0.348 s           0.379 s
  | Preloading free-atom quantities on grid    :        0.024 s           0.024 s
  | Free-atom superposition energy             :        0.096 s           0.100 s
  | Total energy evaluation                    :        0.004 s           0.009 s
------------------------------------------------------------

------------------------------------------------------------
          Begin self-consistency iteration #    1

  Date     :  20130111, Time     :  142132.641
------------------------------------------------------------
  Evaluating new KS density.
  Integration grid: deviation in total charge (<rho> - N_e) =   5.684342E-14
  Pulay mixing of updated and previous charge densities.

  Evaluating partitioned Hartree potential by multipole expansion.
  | Analytical far-field extrapolation by fixed multipoles:
  | Hartree multipole sum: apparent total charge =   0.232354E-04
  Summing up the Hartree potential.
  Time summed over all CPUs for potential: real work       14.290 s, elapsed       14.423 s
  | RMS charge density error from multipole expansion :   0.583906E-02

  Integrating Hamiltonian matrix: batch-based integration.
  Time summed over all CPUs for integration: real work       40.819 s, elapsed       42.020 s

  Updating Kohn-Sham eigenvalues, eigenvectors, occupation numbers, and Fermi level.
  Solving generalized eigenproblem
  Solving real symmetric generalised eigenvalue problem by standard ScaLAPACK.
  Using Cholesky factor for transformation
  Using 2-stage real ELPA solver
  K-Point:    1, Trafo times: 1-stage=     0.059 s, 2-stage=     0.081 s ==> Using 1-stage solver
  Determining occupation numbers for Kohn-Sham eigenstates.
  | Chemical potential (Fermi level) in eV                 : -.76646848E+01
  | Error in electron count due to remaining E_F inaccuracy: 0.00000000E+00
  | Maximum occupation number of highest empty state:  0.00E+00

  Writing Kohn-Sham eigenvalues.

  State    Occupation    Eigenvalue [Ha]    Eigenvalue [eV]
      1       2.00000         -10.062815         -273.82314
      2       2.00000         -10.062662         -273.81896
      3       2.00000         -10.062661         -273.81895
      4       2.00000         -10.062354         -273.81059
      5       2.00000         -10.062354         -273.81058
      6       2.00000         -10.062201         -273.80641
      7       2.00000         -10.060771         -273.76750
      8       2.00000         -10.060770         -273.76747
      9       2.00000         -10.060770         -273.76747
     10       2.00000         -10.060767         -273.76740
     11       2.00000         -10.060767         -273.76739
     12       2.00000         -10.060765         -273.76735
     13       2.00000         -10.053648         -273.57369
     14       2.00000         -10.053647         -273.57364
     15       2.00000         -10.053646         -273.57363
     16       2.00000         -10.053643         -273.57354
     17       2.00000         -10.053643         -273.57353
     18       2.00000         -10.053641         -273.57348
     19       2.00000         -10.053162         -273.56046
     20       2.00000         -10.053161         -273.56042
     21       2.00000         -10.053160         -273.56041
     22       2.00000         -10.053157         -273.56033
     23       2.00000         -10.053157         -273.56032
     24       2.00000         -10.053155         -273.56028
     25       2.00000          -0.952180          -25.91015
     26       2.00000          -0.919155          -25.01147
     27       2.00000          -0.919155          -25.01147
     28       2.00000          -0.876654          -23.85496
     29       2.00000          -0.876653          -23.85495
     30       2.00000          -0.860968          -23.42813
     31       2.00000          -0.835009          -22.72175
     32       2.00000          -0.817716          -22.25118
     33       2.00000          -0.802218          -21.82946
     34       2.00000          -0.802218          -21.82945
     35       2.00000          -0.774633          -21.07883
     36       2.00000          -0.774633          -21.07883
     37       2.00000          -0.702031          -19.10324
     38       2.00000          -0.702031          -19.10324
     39       2.00000          -0.701602          -19.09157
     40       2.00000          -0.701602          -19.09156
     41       2.00000          -0.694097          -18.88733
     42       2.00000          -0.632822          -17.21996
     43       2.00000          -0.625162          -17.01153
     44       2.00000          -0.612167          -16.65792
     45       2.00000          -0.610729          -16.61879
     46       2.00000          -0.610729          -16.61877
     47       2.00000          -0.599972          -16.32608
     48       2.00000          -0.553418          -15.05927
     49       2.00000          -0.553417          -15.05925
     50       2.00000          -0.543838          -14.79858
     51       2.00000          -0.543838          -14.79858
     52       2.00000          -0.531394          -14.45997
     53       2.00000          -0.531394          -14.45996
     54       2.00000          -0.505414          -13.75301
     55       2.00000          -0.502647          -13.67773
     56       2.00000          -0.502473          -13.67298
     57       2.00000          -0.502472          -13.67297
     58       2.00000          -0.491324          -13.36962
     59       2.00000          -0.491324          -13.36960
     60       2.00000          -0.485989          -13.22444
     61       2.00000          -0.457969          -12.46197
     62       2.00000          -0.457626          -12.45263
     63       2.00000          -0.453863          -12.35023
     64       2.00000          -0.448953          -12.21662
     65       2.00000          -0.448953          -12.21662
     66       2.00000          -0.445398          -12.11989
     67       2.00000          -0.445398          -12.11989
     68       2.00000          -0.410040          -11.15776
     69       2.00000          -0.410039          -11.15773
     70       2.00000          -0.402054          -10.94045
     71       2.00000          -0.402054          -10.94045
     72       2.00000          -0.388662          -10.57603
     73       2.00000          -0.349859           -9.52014
     74       2.00000          -0.348801           -9.49137
     75       2.00000          -0.333403           -9.07237
     76       2.00000          -0.333403           -9.07235
     77       2.00000          -0.295049           -8.02869
     78       2.00000          -0.295049           -8.02868
     79       0.00000          -0.190020           -5.17070
     80       0.00000          -0.190019           -5.17068
     81       0.00000          -0.154761           -4.21127
     82       0.00000          -0.154761           -4.21126
     83       0.00000          -0.137403           -3.73892
     84       0.00000          -0.127786           -3.47723
     85       0.00000          -0.084800           -2.30752
     86       0.00000          -0.063076           -1.71639
     87       0.00000          -0.063076           -1.71637
     88       0.00000          -0.046658           -1.26962
     89       0.00000          -0.037029           -1.00760
     90       0.00000          -0.037028           -1.00759
     91       0.00000          -0.022338           -0.60786
     92       0.00000          -0.022324           -0.60746
     93       0.00000          -0.005253           -0.14295
     94       0.00000          -0.002124           -0.05781
     95       0.00000           0.012346            0.33595
     96       0.00000           0.012351            0.33610
     97       0.00000           0.012651            0.34426
     98       0.00000           0.012652            0.34428
     99       0.00000           0.023484            0.63904
    100       0.00000           0.038500            1.04764
    101       0.00000           0.038503            1.04772
    102       0.00000           0.040288            1.09628
    103       0.00000           0.043569            1.18558
    104       0.00000           0.043580            1.18588
    105       0.00000           0.067507            1.83695
    106       0.00000           0.071365            1.94195
    107       0.00000           0.071365            1.94195
    108       0.00000           0.074290            2.02153
    109       0.00000           0.074703            2.03276
    110       0.00000           0.074708            2.03291
    111       0.00000           0.081451            2.21640
    112       0.00000           0.087091            2.36988
    113       0.00000           0.087098            2.37007
    114       0.00000           0.090105            2.45187
    115       0.00000           0.091002            2.47628
    116       0.00000           0.101786            2.76975
    117       0.00000           0.101791            2.76986
    118       0.00000           0.106619            2.90125
    119       0.00000           0.106625            2.90141
    120       0.00000           0.109348            2.97550
    121       0.00000           0.119727            3.25795
    122       0.00000           0.119728            3.25798
    123       0.00000           0.121467            3.30529
    124       0.00000           0.121934            3.31798
    125       0.00000           0.121939            3.31812
    126       0.00000           0.129638            3.52762
    127       0.00000           0.138583            3.77104
    128       0.00000           0.138584            3.77107
    129       0.00000           0.143308            3.89961
    130       0.00000           0.147854            4.02330
    131       0.00000           0.147869            4.02371
    132       0.00000           0.158611            4.31602
    133       0.00000           0.172969            4.70674
    134       0.00000           0.177148            4.82045
    135       0.00000           0.177154            4.82061
    136       0.00000           0.177451            4.82868
    137       0.00000           0.177472            4.82926
    138       0.00000           0.177944            4.84211
    139       0.00000           0.177961            4.84258
    140       0.00000           0.178328            4.85256
    141       0.00000           0.179332            4.87988
    142       0.00000           0.182850            4.97561
    143       0.00000           0.195374            5.31640
    144       0.00000           0.195380            5.31655
    145       0.00000           0.201999            5.49667
    146       0.00000           0.202990            5.52363
    147       0.00000           0.203001            5.52393
    148       0.00000           0.209693            5.70605
    149       0.00000           0.214474            5.83614
    150       0.00000           0.214477            5.83621
    151       0.00000           0.220520            6.00067
    152       0.00000           0.226637            6.16710
    153       0.00000           0.226654            6.16758
    154       0.00000           0.249927            6.80086
    155       0.00000           0.249947            6.80140
    156       0.00000           0.257313            7.00183
    157       0.00000           0.257340            7.00258
    158       0.00000           0.258911            7.04534
    159       0.00000           0.262037            7.13038
    160       0.00000           0.264004            7.18391
    161       0.00000           0.274993            7.48294
    162       0.00000           0.275009            7.48338
    163       0.00000           0.278856            7.58806
    164       0.00000           0.290030            7.89212
    165       0.00000           0.290373            7.90146
    166       0.00000           0.290378            7.90158
    167       0.00000           0.290501            7.90494
    168       0.00000           0.290522            7.90550

  Highest occupied state (VBM) at     -8.02868158 eV
  | Occupation number:      2.00000000

  Lowest unoccupied state (CBM) at    -5.17069873 eV
  | Occupation number:      0.00000000

  Overall HOMO-LUMO gap:      2.85798285 eV.

  Total energy components:
  | Sum of eigenvalues            :        -545.30025247 Ha      -14838.37483784 eV
  | XC energy correction          :        -132.25171292 Ha       -3598.75221111 eV
  | XC potential correction       :         169.88749922 Ha        4622.87406302 eV
  | Free-atom electrostatic energy:        -401.91227988 Ha      -10936.58958300 eV
  | Hartree energy correction     :         -11.90992449 Ha        -324.08553461 eV
  | van der Waals energy corr.    :           0.00000000 Ha           0.00000000 eV
  | Entropy correction            :           0.00000000 Ha           0.00000000 eV
  | ---------------------------
  | Total energy                  :        -921.48667053 Ha      -25074.92810354 eV
  | Total energy, T -> 0          :        -921.48667053 Ha      -25074.92810354 eV  <-- only rely on this value for actual (periodic) metals
  | Electronic free energy        :        -921.48667053 Ha      -25074.92810354 eV

  Derived energy quantities:
  | Kinetic energy                :         916.74270684 Ha       24945.83828347 eV
  | Electrostatic energy          :       -1705.97766446 Ha      -46422.01417590 eV
  | Energy correction for multipole
  | error in Hartree potential    :          -0.02932492 Ha          -0.79797158 eV
  | Sum of eigenvalues per atom                           :        -412.17707883 eV
  | Total energy (T->0) per atom                          :        -696.52578065 eV  <-- only rely on this value for actual (periodic) metals
  | Electronic free energy per atom                       :        -696.52578065 eV

  Self-consistency convergence accuracy:
  | Change of charge density      : 0.9372E+00
  | Change of sum of eigenvalues  : 0.3308E+03 eV
  | Change of total energy        : 0.1285E+02 eV

  End self-consistency iteration #     1       :  max(cpu_time)    wall_clock(cpu1)
  | Time for this iteration                    :        5.340 s           5.418 s
  | Charge density update                      :        1.680 s           1.691 s
  | Density mixing                             :        0.008 s           0.009 s
  | Hartree multipole update                   :        0.012 s           0.023 s
  | Hartree multipole summation                :        0.900 s           0.910 s
  | Integration                                :        2.640 s           2.650 s
  | Solution of K.-S. eqns.                    :        0.108 s           0.127 s
  | Total energy evaluation                    :        0.000 s           0.000 s
------------------------------------------------------------

------------------------------------------------------------
          Begin self-consistency iteration #    2

  Date     :  20130111, Time     :  142138.066
------------------------------------------------------------
  Evaluating new KS density.
  Integration grid: deviation in total charge (<rho> - N_e) =  -2.842171E-14
  Pulay mixing of updated and previous charge densities.

  Evaluating partitioned Hartree potential by multipole expansion.
  | Analytical far-field extrapolation by fixed multipoles:
  | Hartree multipole sum: apparent total charge =   0.840495E-04
  Summing up the Hartree potential.
  Time summed over all CPUs for potential: real work       14.231 s, elapsed       14.370 s
  | RMS charge density error from multipole expansion :   0.196214E-01

  Integrating Hamiltonian matrix: batch-based integration.
  Time summed over all CPUs for integration: real work       40.770 s, elapsed       42.052 s

  Updating Kohn-Sham eigenvalues, eigenvectors, occupation numbers, and Fermi level.
  Solving generalized eigenproblem
  Solving real symmetric generalised eigenvalue problem by standard ScaLAPACK.
  Using Cholesky factor for transformation
  Using 1-stage real ELPA solver
  Determining occupation numbers for Kohn-Sham eigenstates.
  | Chemical potential (Fermi level) in eV                 : -.41894073E+01
  | Error in electron count due to remaining E_F inaccuracy: 0.00000000E+00
  | Maximum occupation number of highest empty state:  0.00E+00

  Highest occupied state (VBM) at     -4.83842145 eV
  | Occupation number:      2.00000000

  Lowest unoccupied state (CBM) at    -1.98679034 eV
  | Occupation number:      0.00000000

  Overall HOMO-LUMO gap:      2.85163111 eV.

  Total energy components:
  | Sum of eigenvalues            :        -521.77044843 Ha      -14198.09629306 eV
  | XC energy correction          :        -133.91541691 Ha       -3644.02390006 eV
  | XC potential correction       :         172.04385651 Ha        4681.55153023 eV
  | Free-atom electrostatic energy:        -401.91227988 Ha      -10936.58958300 eV
  | Hartree energy correction     :         -35.58804529 Ha        -968.39998412 eV
  | van der Waals energy corr.    :           0.00000000 Ha           0.00000000 eV
  | Entropy correction            :           0.00000000 Ha           0.00000000 eV
  | ---------------------------
  | Total energy                  :        -921.14233401 Ha      -25065.55823002 eV
  | Total energy, T -> 0          :        -921.14233401 Ha      -25065.55823002 eV  <-- only rely on this value for actual (periodic) metals
  | Electronic free energy        :        -921.14233401 Ha      -25065.55823002 eV

  Derived energy quantities:
  | Kinetic energy                :         921.58463551 Ha       25077.59386619 eV
  | Electrostatic energy          :       -1708.81155261 Ha      -46499.12819615 eV
  | Energy correction for multipole
  | error in Hartree potential    :          -0.09522595 Ha          -2.59122993 eV
  | Sum of eigenvalues per atom                           :        -394.39156370 eV
  | Total energy (T->0) per atom                          :        -696.26550639 eV  <-- only rely on this value for actual (periodic) metals
  | Electronic free energy per atom                       :        -696.26550639 eV

  Self-consistency convergence accuracy:
  | Change of charge density      : 0.6848E+00
  | Change of sum of eigenvalues  : 0.6403E+03 eV
  | Change of total energy        : 0.9370E+01 eV

  End self-consistency iteration #     2       :  max(cpu_time)    wall_clock(cpu1)
  | Time for this iteration                    :        5.336 s           5.365 s
  | Charge density update                      :        1.676 s           1.681 s
  | Density mixing                             :        0.012 s           0.021 s
  | Hartree multipole update                   :        0.012 s           0.008 s
  | Hartree multipole summation                :        0.896 s           0.899 s
  | Integration                                :        2.644 s           2.652 s
  | Solution of K.-S. eqns.                    :        0.104 s           0.104 s
  | Total energy evaluation                    :        0.000 s           0.000 s
------------------------------------------------------------

------------------------------------------------------------
          Begin self-consistency iteration #    3

  Date     :  20130111, Time     :  142143.431
------------------------------------------------------------
  Evaluating new KS density.
  Integration grid: deviation in total charge (<rho> - N_e) =   8.526513E-14
  Pulay mixing of updated and previous charge densities.

  Evaluating partitioned Hartree potential by multipole expansion.
  | Analytical far-field extrapolation by fixed multipoles:
  | Hartree multipole sum: apparent total charge =   0.113275E-03
  Summing up the Hartree potential.
  Time summed over all CPUs for potential: real work       14.228 s, elapsed       14.373 s
  | RMS charge density error from multipole expansion :   0.235612E-01

  Integrating Hamiltonian matrix: batch-based integration.
  Time summed over all CPUs for integration: real work       40.761 s, elapsed       42.045 s

  Updating Kohn-Sham eigenvalues, eigenvectors, occupation numbers, and Fermi level.
  Solving generalized eigenproblem
  Solving real symmetric generalised eigenvalue problem by standard ScaLAPACK.
  Using Cholesky factor for transformation
  Using 1-stage real ELPA solver
  Determining occupation numbers for Kohn-Sham eigenstates.
  | Chemical potential (Fermi level) in eV                 : -.39424550E+01
  | Error in electron count due to remaining E_F inaccuracy: 0.00000000E+00
  | Maximum occupation number of highest empty state:  0.00E+00

  Highest occupied state (VBM) at     -5.53889504 eV
  | Occupation number:      2.00000000

  Lowest unoccupied state (CBM) at    -2.65312460 eV
  | Occupation number:      0.00000000

  Overall HOMO-LUMO gap:      2.88577044 eV.

  Total energy components:
  | Sum of eigenvalues            :        -526.57667534 Ha      -14328.88038145 eV
  | XC energy correction          :        -133.71627183 Ha       -3638.60488676 eV
  | XC potential correction       :         171.77703409 Ha        4674.29092276 eV
  | Free-atom electrostatic energy:        -401.91227988 Ha      -10936.58958300 eV
  | Hartree energy correction     :         -30.69259529 Ha        -835.18801173 eV
  | van der Waals energy corr.    :           0.00000000 Ha           0.00000000 eV
  | Entropy correction            :           0.00000000 Ha           0.00000000 eV
  | ---------------------------
  | Total energy                  :        -921.12078826 Ha      -25064.97194018 eV
  | Total energy, T -> 0          :        -921.12078826 Ha      -25064.97194018 eV  <-- only rely on this value for actual (periodic) metals
  | Electronic free energy        :        -921.12078826 Ha      -25064.97194018 eV

  Derived energy quantities:
  | Kinetic energy                :         917.86781565 Ha       24976.45405173 eV
  | Electrostatic energy          :       -1705.27233207 Ha      -46402.82110516 eV
  | Energy correction for multipole
  | error in Hartree potential    :          -0.10570303 Ha          -2.87632586 eV
  | Sum of eigenvalues per atom                           :        -398.02445504 eV
  | Total energy (T->0) per atom                          :        -696.24922056 eV  <-- only rely on this value for actual (periodic) metals
  | Electronic free energy per atom                       :        -696.24922056 eV

  Self-consistency convergence accuracy:
  | Change of charge density      : 0.2432E+00
  | Change of sum of eigenvalues  : -.1308E+03 eV
  | Change of total energy        : 0.5863E+00 eV

  End self-consistency iteration #     3       :  max(cpu_time)    wall_clock(cpu1)
  | Time for this iteration                    :        5.332 s           5.351 s
  | Charge density update                      :        1.676 s           1.678 s
  | Density mixing                             :        0.012 s           0.010 s
  | Hartree multipole update                   :        0.012 s           0.009 s
  | Hartree multipole summation                :        0.900 s           0.899 s
  | Integration                                :        2.644 s           2.651 s
  | Solution of K.-S. eqns.                    :        0.104 s           0.103 s
  | Total energy evaluation                    :        0.004 s           0.000 s
------------------------------------------------------------

------------------------------------------------------------
          Begin self-consistency iteration #    4

  Date     :  20130111, Time     :  142148.782
------------------------------------------------------------
  Evaluating new KS density.
  Integration grid: deviation in total charge (<rho> - N_e) =   2.842171E-14
  Pulay mixing of updated and previous charge densities.

  Evaluating partitioned Hartree potential by multipole expansion.
  | Analytical far-field extrapolation by fixed multipoles:
  | Hartree multipole sum: apparent total charge =   0.121207E-03
  Summing up the Hartree potential.
  Time summed over all CPUs for potential: real work       14.228 s, elapsed       14.374 s
  | RMS charge density error from multipole expansion :   0.250832E-01

  Integrating Hamiltonian matrix: batch-based integration.
  Time summed over all CPUs for integration: real work       40.782 s, elapsed       42.125 s

  Updating Kohn-Sham eigenvalues, eigenvectors, occupation numbers, and Fermi level.
  Solving generalized eigenproblem
  Solving real symmetric generalised eigenvalue problem by standard ScaLAPACK.
  Using Cholesky factor for transformation
  Using 1-stage real ELPA solver
  Determining occupation numbers for Kohn-Sham eigenstates.
  | Chemical potential (Fermi level) in eV                 : -.37329094E+01
  | Error in electron count due to remaining E_F inaccuracy: 0.00000000E+00
  | Maximum occupation number of highest empty state:  0.00E+00

  Highest occupied state (VBM) at     -5.23650434 eV
  | Occupation number:      2.00000000

  Lowest unoccupied state (CBM) at    -2.35516940 eV
  | Occupation number:      0.00000000

  Overall HOMO-LUMO gap:      2.88133494 eV.

  Total energy components:
  | Sum of eigenvalues            :        -524.40891010 Ha      -14269.89248803 eV
  | XC energy correction          :        -133.84726521 Ha       -3642.16939781 eV
  | XC potential correction       :         171.94655802 Ha        4678.90390370 eV
  | Free-atom electrostatic energy:        -401.91227988 Ha      -10936.58958300 eV
  | Hartree energy correction     :         -32.89618534 Ha        -895.15074797 eV
  | van der Waals energy corr.    :           0.00000000 Ha           0.00000000 eV
  | Entropy correction            :           0.00000000 Ha           0.00000000 eV
  | ---------------------------
  | Total energy                  :        -921.11808251 Ha      -25064.89831311 eV
  | Total energy, T -> 0          :        -921.11808251 Ha      -25064.89831311 eV  <-- only rely on this value for actual (periodic) metals
  | Electronic free energy        :        -921.11808251 Ha      -25064.89831311 eV

  Derived energy quantities:
  | Kinetic energy                :         917.85380083 Ha       24976.07268923 eV
  | Electrostatic energy          :       -1705.12461814 Ha      -46398.80160453 eV
  | Energy correction for multipole
  | error in Hartree potential    :          -0.11202788 Ha          -3.04843381 eV
  | Sum of eigenvalues per atom                           :        -396.38590245 eV
  | Total energy (T->0) per atom                          :        -696.24717536 eV  <-- only rely on this value for actual (periodic) metals
  | Electronic free energy per atom                       :        -696.24717536 eV

  Self-consistency convergence accuracy:
  | Change of charge density      : 0.6118E-01
  | Change of sum of eigenvalues  : 0.5899E+02 eV
  | Change of total energy        : 0.7363E-01 eV

  End self-consistency iteration #     4       :  max(cpu_time)    wall_clock(cpu1)
  | Time for this iteration                    :        5.340 s           5.357 s
  | Charge density update                      :        1.672 s           1.678 s
  | Density mixing                             :        0.012 s           0.011 s
  | Hartree multipole update                   :        0.012 s           0.009 s
  | Hartree multipole summation                :        0.900 s           0.899 s
  | Integration                                :        2.652 s           2.656 s
  | Solution of K.-S. eqns.                    :        0.104 s           0.103 s
  | Total energy evaluation                    :        0.000 s           0.001 s
------------------------------------------------------------

------------------------------------------------------------
          Begin self-consistency iteration #    5

  Date     :  20130111, Time     :  142154.139
------------------------------------------------------------
  Evaluating new KS density.
  Integration grid: deviation in total charge (<rho> - N_e) =   0.000000E+00
  Pulay mixing of updated and previous charge densities.

  Evaluating partitioned Hartree potential by multipole expansion.
  | Analytical far-field extrapolation by fixed multipoles:
  | Hartree multipole sum: apparent total charge =   0.124244E-03
  Summing up the Hartree potential.
  Time summed over all CPUs for potential: real work       14.229 s, elapsed       14.370 s
  | RMS charge density error from multipole expansion :   0.254414E-01

  Integrating Hamiltonian matrix: batch-based integration.
  Time summed over all CPUs for integration: real work       40.752 s, elapsed       42.092 s

  Updating Kohn-Sham eigenvalues, eigenvectors, occupation numbers, and Fermi level.
  Solving generalized eigenproblem
  Solving real symmetric generalised eigenvalue problem by standard ScaLAPACK.
  Using Cholesky factor for transformation
  Using 1-stage real ELPA solver
  Determining occupation numbers for Kohn-Sham eigenstates.
  | Chemical potential (Fermi level) in eV                 : -.43422338E+01
  | Error in electron count due to remaining E_F inaccuracy: 0.00000000E+00
  | Maximum occupation number of highest empty state:  0.00E+00

  Highest occupied state (VBM) at     -5.19532070 eV
  | Occupation number:      2.00000000

  Lowest unoccupied state (CBM) at    -2.32051434 eV
  | Occupation number:      0.00000000

  Overall HOMO-LUMO gap:      2.87480636 eV.

  Total energy components:
  | Sum of eigenvalues            :        -524.31920495 Ha      -14267.45148657 eV
  | XC energy correction          :        -133.80715296 Ha       -3641.07788801 eV
  | XC potential correction       :         171.89473842 Ha        4677.49382065 eV
[...]
   Total forces(  13)            : 0.340248E-02 0.448749E-03 0.244309E-13
  atom #   14
   Hellmann-Feynman + Multipole  : 0.263645E-01 -.526052E-01 -.454452E-14
   Pulay + GGA                   : -.277527E-01 0.618623E-01 0.564209E-14
   Van der Waals               : -.359585E-03 -.875815E-02 0.000000E+00
   ----------------------------------------------------------------
   Total forces(  14)            : -.174782E-02 0.498958E-03 0.109757E-14
  atom #   15
   Hellmann-Feynman + Multipole  : 0.188259E+00 -.450343E+00 -.491641E-12
   Pulay + GGA                   : -.208230E+00 0.449713E+00 0.298295E-12
   Van der Waals               : 0.213017E-01 0.382222E-02 0.000000E+00
   ----------------------------------------------------------------
   Total forces(  15)            : 0.133132E-02 0.319141E-02 -.193346E-12
  atom #   16
   Hellmann-Feynman + Multipole  : 0.587101E-01 -.346797E-02 -.464765E-14
   Pulay + GGA                   : -.674462E-01 0.689205E-02 0.608811E-14
   Van der Waals               : 0.740595E-02 -.468883E-02 0.000000E+00
   ----------------------------------------------------------------
   Total forces(  16)            : -.133015E-02 -.126475E-02 0.144046E-14
  atom #   17
   Hellmann-Feynman + Multipole  : 0.484989E+00 -.624464E-01 0.857685E-13
   Pulay + GGA                   : -.494516E+00 0.449220E-01 0.105616E-12
   Van der Waals               : 0.734170E-02 0.203577E-01 0.000000E+00
   ----------------------------------------------------------------
   Total forces(  17)            : -.218627E-02 0.283340E-02 0.191385E-12
  atom #   18
   Hellmann-Feynman + Multipole  : 0.324475E-01 0.491211E-01 0.236057E-14
   Pulay + GGA                   : -.396913E-01 -.549654E-01 -.390263E-15
   Van der Waals               : 0.776381E-02 0.406773E-02 0.000000E+00
   ----------------------------------------------------------------
   Total forces(  18)            : 0.519973E-03 -.177658E-02 0.197030E-14
  atom #   19
   Hellmann-Feynman + Multipole  : 0.294816E+00 0.387810E+00 -.417126E-12
   Pulay + GGA                   : -.284259E+00 -.404796E+00 0.913439E-13
   Van der Waals               : -.139598E-01 0.165369E-01 0.000000E+00
   ----------------------------------------------------------------
   Total forces(  19)            : -.340248E-02 -.448749E-03 -.325782E-12
  atom #   20
   Hellmann-Feynman + Multipole  : -.263645E-01 0.526052E-01 0.214327E-14
   Pulay + GGA                   : 0.277527E-01 -.618623E-01 0.124884E-14
   Van der Waals               : 0.359585E-03 0.875815E-02 0.000000E+00
   ----------------------------------------------------------------
   Total forces(  20)            : 0.174782E-02 -.498958E-03 0.339211E-14
  atom #   21
   Hellmann-Feynman + Multipole  : -.188259E+00 0.450343E+00 0.191559E-12
   Pulay + GGA                   : 0.208230E+00 -.449713E+00 -.884894E-13
   Van der Waals               : -.213017E-01 -.382222E-02 0.000000E+00
   ----------------------------------------------------------------
   Total forces(  21)            : -.133132E-02 -.319141E-02 0.103070E-12
  atom #   22
   Hellmann-Feynman + Multipole  : -.587101E-01 0.346797E-02 -.551058E-14
   Pulay + GGA                   : 0.674462E-01 -.689205E-02 0.525183E-14
   Van der Waals               : -.740595E-02 0.468883E-02 0.000000E+00
   ----------------------------------------------------------------
   Total forces(  22)            : 0.133015E-02 0.126475E-02 -.258749E-15
  atom #   23
   Hellmann-Feynman + Multipole  : -.484989E+00 0.624464E-01 0.116210E-12
   Pulay + GGA                   : 0.494516E+00 -.449220E-01 -.251196E-12
   Van der Waals               : -.734170E-02 -.203577E-01 0.000000E+00
   ----------------------------------------------------------------
   Total forces(  23)            : 0.218627E-02 -.283340E-02 -.134986E-12
  atom #   24
   Hellmann-Feynman + Multipole  : -.324475E-01 -.491211E-01 0.143863E-14
   Pulay + GGA                   : 0.396913E-01 0.549654E-01 -.276529E-14
   Van der Waals               : -.776381E-02 -.406773E-02 0.000000E+00
   ----------------------------------------------------------------
   Total forces(  24)            : -.519973E-03 0.177658E-02 -.132666E-14
  atom #   25
   Hellmann-Feynman + Multipole  : 0.188259E+00 0.450343E+00 0.179020E-12
   Pulay + GGA                   : -.208230E+00 -.449713E+00 -.856349E-14
   Van der Waals               : 0.213017E-01 -.382222E-02 0.000000E+00
   ----------------------------------------------------------------
   Total forces(  25)            : 0.133132E-02 -.319141E-02 0.170456E-12
  atom #   26
   Hellmann-Feynman + Multipole  : 0.587101E-01 0.346797E-02 -.547039E-14
   Pulay + GGA                   : -.674462E-01 -.689205E-02 0.535218E-14
   Van der Waals               : 0.740595E-02 0.468883E-02 0.000000E+00
   ----------------------------------------------------------------
   Total forces(  26)            : -.133015E-02 0.126475E-02 -.118205E-15
  atom #   27
   Hellmann-Feynman + Multipole  : -.294816E+00 0.387810E+00 -.487166E-13
   Pulay + GGA                   : 0.284259E+00 -.404796E+00 0.111325E-12
   Van der Waals               : 0.139598E-01 0.165369E-01 0.000000E+00
   ----------------------------------------------------------------
   Total forces(  27)            : 0.340248E-02 -.448749E-03 0.626089E-13
  atom #   28
   Hellmann-Feynman + Multipole  : 0.263645E-01 0.526052E-01 -.185283E-13
   Pulay + GGA                   : -.277527E-01 -.618623E-01 0.322692E-13
   Van der Waals               : -.359585E-03 0.875815E-02 0.000000E+00
   ----------------------------------------------------------------
   Total forces(  28)            : -.174782E-02 -.498958E-03 0.137409E-13
  atom #   29
   Hellmann-Feynman + Multipole  : -.484989E+00 -.624464E-01 0.323642E-12
   Pulay + GGA                   : 0.494516E+00 0.449220E-01 -.199815E-12
   Van der Waals               : -.734170E-02 0.203577E-01 0.000000E+00
   ----------------------------------------------------------------
   Total forces(  29)            : 0.218627E-02 0.283340E-02 0.123827E-12
  atom #   30
   Hellmann-Feynman + Multipole  : -.324475E-01 0.491211E-01 0.233961E-15
   Pulay + GGA                   : 0.396913E-01 -.549654E-01 0.100576E-13
   Van der Waals               : -.776381E-02 0.406773E-02 0.000000E+00
   ----------------------------------------------------------------
   Total forces(  30)            : -.519973E-03 -.177658E-02 0.102916E-13
  atom #   31
   Hellmann-Feynman + Multipole  : -.188259E+00 -.450343E+00 -.273900E-13
   Pulay + GGA                   : 0.208230E+00 0.449713E+00 0.342540E-13
   Van der Waals               : -.213017E-01 0.382222E-02 0.000000E+00
   ----------------------------------------------------------------
   Total forces(  31)            : -.133132E-02 0.319141E-02 0.686396E-14
  atom #   32
   Hellmann-Feynman + Multipole  : -.587101E-01 -.346797E-02 0.681756E-14
   Pulay + GGA                   : 0.674462E-01 0.689205E-02 -.101914E-13
   Van der Waals               : -.740595E-02 -.468883E-02 0.000000E+00
   ----------------------------------------------------------------
   Total forces(  32)            : 0.133015E-02 -.126475E-02 -.337389E-14
  atom #   33
   Hellmann-Feynman + Multipole  : 0.294816E+00 -.387810E+00 0.284313E-12
   Pulay + GGA                   : -.284259E+00 0.404796E+00 0.570900E-14
   Van der Waals               : -.139598E-01 -.165369E-01 0.000000E+00
   ----------------------------------------------------------------
   Total forces(  33)            : -.340248E-02 0.448749E-03 0.290022E-12
  atom #   34
   Hellmann-Feynman + Multipole  : -.263645E-01 -.526052E-01 -.100049E-13
   Pulay + GGA                   : 0.277527E-01 0.618623E-01 0.139213E-13
   Van der Waals               : 0.359585E-03 -.875815E-02 0.000000E+00
   ----------------------------------------------------------------
   Total forces(  34)            : 0.174782E-02 0.498958E-03 0.391640E-14
  atom #   35
   Hellmann-Feynman + Multipole  : 0.484989E+00 0.624464E-01 0.313370E-13
   Pulay + GGA                   : -.494516E+00 -.449220E-01 0.171270E-13
   Van der Waals               : 0.734170E-02 -.203577E-01 0.000000E+00
   ----------------------------------------------------------------
   Total forces(  35)            : -.218627E-02 -.283340E-02 0.484640E-13
  atom #   36
   Hellmann-Feynman + Multipole  : 0.324475E-01 -.491211E-01 -.111244E-13
   Pulay + GGA                   : -.396913E-01 0.549654E-01 0.255678E-13
   Van der Waals               : 0.776381E-02 -.406773E-02 0.000000E+00
   ----------------------------------------------------------------
   Total forces(  36)            : 0.519973E-03 0.177658E-02 0.144434E-13
 
  Energy and forces in a compact form:
  | Total energy uncorrected      :         -0.250655174418229E+05 eV
  | Total energy corrected        :         -0.250655174418229E+05 eV  <-- only rely on this value for actual (periodic) metals
  | Electronic free energy        :         -0.250655174418229E+05 eV
  Total atomic forces (unitary forces were cleaned, then relaxation constraints were applied) [eV/Ang]:
  |   1          0.284586960134960E-04         -0.121554693815250E-03          0.000000000000000E+00
  |   2          0.173016345309690E-03          0.219541123115510E-11          0.000000000000000E+00
  |   3          0.284586958304095E-04          0.121554695785626E-03          0.000000000000000E+00
  |   4         -0.284586960206587E-04          0.121554697207631E-03          0.000000000000000E+00
  |   5         -0.173016346716612E-03         -0.106035588406363E-11          0.000000000000000E+00
  |   6         -0.284586939630479E-04         -0.121554695950791E-03          0.000000000000000E+00
  |   7          0.394954294828895E-03         -0.508947956656972E-03          0.000000000000000E+00
  |   8          0.689452915266348E-03          0.734139719868688E-12          0.000000000000000E+00
  |   9          0.394954295070570E-03          0.508947955979347E-03          0.000000000000000E+00
  |  10         -0.394954292573015E-03          0.508947956587057E-03          0.000000000000000E+00
  |  11         -0.689452914525344E-03          0.156495594784248E-11          0.000000000000000E+00
  |  12         -0.394954291258234E-03         -0.508947957415552E-03          0.000000000000000E+00
  |  13          0.340248294785677E-02          0.448748628164845E-03          0.000000000000000E+00
  |  14         -0.174782333190136E-02          0.498957702701987E-03          0.000000000000000E+00
  |  15          0.133132373500012E-02          0.319141188462069E-02          0.000000000000000E+00
  |  16         -0.133015101540259E-02         -0.126474843175611E-02          0.000000000000000E+00
  |  17         -0.218626776845999E-02          0.283340339123676E-02          0.000000000000000E+00
  |  18          0.519973397789239E-03         -0.177658383782976E-02          0.000000000000000E+00
  |  19         -0.340248295053255E-02         -0.448748630362619E-03          0.000000000000000E+00
  |  20          0.174782333168901E-02         -0.498957702882539E-03          0.000000000000000E+00
  |  21         -0.133132373540323E-02         -0.319141188057432E-02          0.000000000000000E+00
  |  22          0.133015101539805E-02          0.126474843186837E-02          0.000000000000000E+00
  |  23          0.218626776886033E-02         -0.283340338762331E-02          0.000000000000000E+00
  |  24         -0.519973397904325E-03          0.177658383793977E-02          0.000000000000000E+00
  |  25          0.133132373352294E-02         -0.319141188217413E-02          0.000000000000000E+00
  |  26         -0.133015101563538E-02          0.126474843129222E-02          0.000000000000000E+00
  |  27          0.340248294545785E-02         -0.448748627207088E-03          0.000000000000000E+00
  |  28         -0.174782333159950E-02         -0.498957702751906E-03          0.000000000000000E+00
  |  29          0.218626776786590E-02          0.283340339008517E-02          0.000000000000000E+00
  |  30         -0.519973398026550E-03         -0.177658383756693E-02          0.000000000000000E+00
  |  31         -0.133132373526853E-02          0.319141188259397E-02          0.000000000000000E+00
  |  32          0.133015101550921E-02         -0.126474843191646E-02          0.000000000000000E+00
  |  33         -0.340248294962557E-02          0.448748625736721E-03          0.000000000000000E+00
  |  34          0.174782333180958E-02          0.498957702482586E-03          0.000000000000000E+00
  |  35         -0.218626776747859E-02         -0.283340338963257E-02          0.000000000000000E+00
  |  36          0.519973397756803E-03          0.177658383802654E-02          0.000000000000000E+00
 
  ------------------------------------ 
  Start decomposition of the XC Energy 
  ------------------------------------ 
  Hartree-Fock part   :          0.000000000 Ha              0.000000000 eV
  ------------------------------------ 
  X Energy            :       -128.508860244 Ha          -3496.904007766 eV
  C Energy GGA        :         -5.257895533 Ha           -143.074617017 eV
  Total XC Energy     :       -133.766755778 Ha          -3639.978624782 eV
  LDA X and C from self-consistent density 
  X Energy LDA        :       -116.412688073 Ha          -3167.750415836 eV
  C Energy LDA        :        -10.110880282 Ha           -275.131050994 eV
  ------------------------------------ 
  End decomposition of the XC Energy 
  ------------------------------------ 
  Relaxation / MD: End force evaluation.       :  max(cpu_time)    wall_clock(cpu1)
  | Time for this force evaluation             :      112.487 s         113.238 s

------------------------------------------------------------
  Geometry optimization: Attempting to predict improved coordinates.

  Net remaining forces (excluding translations, rotations) in present geometry:
  Maximum force component is  0.340248E-02 eV/A.
  Present geometry is converged.

------------------------------------------------------------
  Final atomic structure:
                         x [A]             y [A]             z [A]
            atom        -0.71243027        1.23396634        0.00000000  C
            atom        -1.42486516        0.00000000        0.00000000  C
            atom        -0.71243027       -1.23396634        0.00000000  C
            atom         0.71243027       -1.23396634        0.00000000  C
            atom         1.42486516        0.00000000        0.00000000  C
            atom         0.71243027        1.23396634        0.00000000  C
            atom        -1.42424233        2.46686049        0.00000000  C
            atom        -2.84848846        0.00000000        0.00000000  C
            atom        -1.42424233       -2.46686049        0.00000000  C
            atom         1.42424233       -2.46686049        0.00000000  C
            atom         2.84848846        0.00000000        0.00000000  C
            atom         1.42424233        2.46686049        0.00000000  C
            atom        -2.84580245        2.43648439        0.00000000  C
            atom        -3.38895815        3.38280060        0.00000000  H
            atom        -3.53296333       -1.24629587        0.00000000  C
            atom        -4.62407474       -1.24352959        0.00000000  H
            atom        -0.68715742       -3.68278568        0.00000000  C
            atom        -1.23512609       -4.62632322        0.00000000  H
            atom         2.84580245       -2.43648439        0.00000000  C
            atom         3.38895815       -3.38280060        0.00000000  H
            atom         3.53296333        1.24629587        0.00000000  C
            atom         4.62407474        1.24352959        0.00000000  H
            atom         0.68715742        3.68278568        0.00000000  C
            atom         1.23512609        4.62632322        0.00000000  H
            atom        -3.53296333        1.24629587        0.00000000  C
            atom        -4.62407474        1.24352959        0.00000000  H
            atom        -2.84580245       -2.43648439        0.00000000  C
            atom        -3.38895815       -3.38280060        0.00000000  H
            atom         0.68715742       -3.68278568        0.00000000  C
            atom         1.23512609       -4.62632322        0.00000000  H
            atom         3.53296333       -1.24629587        0.00000000  C
            atom         4.62407474       -1.24352959        0.00000000  H
            atom         2.84580245        2.43648439        0.00000000  C
            atom         3.38895815        3.38280060        0.00000000  H
            atom        -0.68715742        3.68278568        0.00000000  C
            atom        -1.23512609        4.62632322        0.00000000  H
------------------------------------------------------------

------------------------------------------------------------------------------
  Final output of selected total energy values:

  The following output summarizes some interesting total energy values
  at the end of a run (AFTER all relaxation, molecular dynamics, etc.).

  | Total energy of the DFT / Hartree-Fock s.c.f. calculation      :         -25065.517441823 eV
  | Final zero-broadening corrected energy (caution - metals only) :         -25065.517441823 eV
  | For reference only, the value of 1 Hartree used in FHI-aims is :             27.211384500 eV

  Before relying on these values, please be sure to understand exactly which
  total energy value is referred to by a given number. Different objects may
  all carry the same name 'total energy'. Definitions:

  Total energy of the DFT / Hartree-Fock s.c.f. calculation:
  | Note that this energy does not include ANY quantities calculated after the
  | s.c.f. cycle, in particular not ANY RPA, MP2, etc. many-body perturbation terms.

  Final zero-broadening corrected energy:
  | For metallic systems only, a broadening of the occupation numbers at the Fermi
  | level can be extrapolated back to zero broadening by an electron-gas inspired
  | formula. For all systems that are not real metals, this value can be
  | meaningless and should be avoided.

------------------------------------------------------------------------------

------------------------------------------------------------
          Leaving FHI-aims.
          Date     :  20130111, Time     :  142319.881

          Computational steps:
          | Number of self-consistency cycles          :           18
          | Number of relaxation steps                 :            0

          Detailed time accounting                     :  max(cpu_time)    wall_clock(cpu1)
          | Total time                                 :      112.915 s         114.044 s
          | Preparation time                           :        0.188 s           0.388 s
          | Grid partitioning                          :        0.348 s           0.379 s
          | Preloading free-atom quantities on grid    :        0.024 s           0.024 s
          | Free-atom superposition energy             :        0.096 s           0.100 s
          | Total time for integrations                :       51.871 s          52.048 s
          | Total time for solution of K.-S. equations :        2.124 s           2.198 s
          | Total time for EV reorthonormalization     :        0.000 s           0.000 s
          | Total time for density & force components  :       35.782 s          35.876 s
          | Total time for mixing                      :        0.312 s           0.301 s
          | Total time for Hartree multipole update    :        0.204 s           0.162 s
          | Total time for Hartree multipole sum       :       20.733 s          20.772 s
          | Total time for total energy evaluation     :        0.016 s           0.017 s

          Have a nice day.
------------------------------------------------------------
