================================================================================
| EXCITING CARBON started                                                      =
| version hash id: c8bcb592575ca5c81df9e335022ef7cb29d0cb51                    =
| MPI version using      8 processor(s)                                        =
|                                                                              =
| Date (DD-MM-YYYY) : 29-03-2017                                               =
| Time (hh:mm:ss)   : 13:53:42                                                 =
|                                                                              =
| All units are atomic (Hartree, Bohr, etc.)                                   =
================================================================================
 
********************************************************************************
| Ground-state run starting from atomic densities                              *
********************************************************************************
 
++++++++++++++++++++++++++++++++++++++++++++++++++++++++++++++++++++++++++++++++
| Starting initialization                                                      +
++++++++++++++++++++++++++++++++++++++++++++++++++++++++++++++++++++++++++++++++
 
 Lattice vectors (cartesian) :
      5.1300000000      5.1300000000      0.0000000000
      5.1300000000      0.0000000000      5.1300000000
      0.0000000000      5.1300000000      5.1300000000
 
 Reciprocal lattice vectors (cartesian) :
      0.6123962288      0.6123962288     -0.6123962288
      0.6123962288     -0.6123962288      0.6123962288
     -0.6123962288      0.6123962288      0.6123962288
 
 Unit cell volume                           :     270.0113940000
 Brillouin zone volume                      :       0.9186657265
 
 Species :    1 (Si)
     parameters loaded from                 :    Si.xml
     name                                   :    silicon
     nuclear charge                         :     -14.00000000
     electronic charge                      :      14.00000000
     atomic mass                            :   51196.73454000
     muffin-tin radius                      :       2.10000000
     # of radial points in muffin-tin       :     300
 
     atomic positions (lattice) :
       1 :   0.00000000  0.00000000  0.00000000
       2 :   0.25000000  0.25000000  0.25000000
 
 Total number of atoms per unit cell        :       2
 
 Spin treatment                             :    spin-unpolarised
 
 Number of Bravais lattice symmetries       :      48
 Number of crystal symmetries               :      48
 
 k-point grid                               :       4    4    4
 Total number of k-points                   :       8
 k-point set is reduced with crystal symmetries
 
 R^MT_min * |G+k|_max (rgkmax)              :       8.00000000
 Species with R^MT_min                      :       1 (Si)
 Maximum |G+k| for APW functions            :       3.80952381
 Maximum |G| for potential and density      :      12.00000000
 
 G-vector grid sizes                        :      30    30    30
 Total number of G-vectors                  :    7799
 
 Maximum angular momentum used for
     APW functions                          :       8
     computing H and O matrix elements      :       8
     potential and density                  :       8
     inner part of muffin-tin               :       2
 
 Total nuclear charge                       :     -28.00000000
 Total electronic charge                    :      28.00000000
 Total core charge                          :      20.00000000
 Total valence charge                       :       8.00000000
 
 Number of empty states                     :       5
 Total number of valence states             :      10
 
 Maximum Hamiltonian size                   :     267
 Maximum number of plane-waves              :     259
 Total number of local-orbitals             :       8
 
 Exchange-correlation type                  :       3
     Perdew-Wang, Phys. Rev. B 45, 13244 (1992)
 
 Smearing scheme                            :    Gaussian
 Smearing width                             :       0.00100000
 
 Using multisecant Broyden potential mixing
 
++++++++++++++++++++++++++++++++++++++++++++++++++++++++++++++++++++++++++++++++
| Ending initialization                                                        +
++++++++++++++++++++++++++++++++++++++++++++++++++++++++++++++++++++++++++++++++
 
********************************************************************************
| Groundstate module started                                                   *
********************************************************************************
 Output level for this task is set to normal
 
++++++++++++++++++++++++++++++++++++++++++++++++++++++++++++++++++++++++++++++++
| Self-consistent loop started                                                 +
++++++++++++++++++++++++++++++++++++++++++++++++++++++++++++++++++++++++++++++++
 Density and potential initialised from atomic data
 
 
++++++++++++++++++++++++++++++++++++++++++++++++++++++++++++++++++++++++++++++++
| SCF iteration number :    1                                                  +
++++++++++++++++++++++++++++++++++++++++++++++++++++++++++++++++++++++++++++++++
 Total energy                               :      -579.10370214
 _______________________________________________________________
 Fermi energy                               :         0.18825077
 Kinetic energy                             :       578.37810596
 Coulomb energy                             :     -1117.75017965
 Exchange energy                            :       -37.58389394
 Correlation energy                         :        -2.14773451
 
 DOS at Fermi energy (states/Ha/cell)       :         0.00000000
 
 Electron charges :
     core                                   :        20.00000000
     core leakage                           :         0.00463657
     valence                                :         8.00000000
     interstitial                           :         3.79184141
     charge in muffin-tin spheres :
                  atom     1    Si          :        12.10407930
                  atom     2    Si          :        12.10407930
     total charge in muffin-tins            :        24.20815859
     total charge                           :        28.00000000
 
 Estimated fundamental gap                  :         0.03893643
        valence-band maximum at    1      0.0000  0.0000  0.0000
     conduction-band minimum at    7      0.5000  0.5000  0.0000
 
 Wall time (seconds)                        :         2.71
 
++++++++++++++++++++++++++++++++++++++++++++++++++++++++++++++++++++++++++++++++
| SCF iteration number :    2                                                  +
++++++++++++++++++++++++++++++++++++++++++++++++++++++++++++++++++++++++++++++++
 Total energy                               :      -578.67210721
 _______________________________________________________________
 Fermi energy                               :         0.19276204
 Kinetic energy                             :       578.66905275
 Coulomb energy                             :     -1117.62494742
 Exchange energy                            :       -37.56918479
 Correlation energy                         :        -2.14702775
 
 DOS at Fermi energy (states/Ha/cell)       :         0.00000000
 
 Electron charges :
     core                                   :        20.00000000
     core leakage                           :         0.00464615
     valence                                :         8.00000000
     interstitial                           :         3.82607625
     charge in muffin-tin spheres :
                  atom     1    Si          :        12.08696187
                  atom     2    Si          :        12.08696187
     total charge in muffin-tins            :        24.17392375
     total charge                           :        28.00000000
 
 Estimated fundamental gap                  :         0.03321083
        valence-band maximum at    1      0.0000  0.0000  0.0000
     conduction-band minimum at    7      0.5000  0.5000  0.0000
 
 Wall time (seconds)                        :         3.14
 
 RMS change in effective potential (target) :  0.171121E-01  ( 0.100000E-05)
 Absolute change in total energy   (target) :  0.431595      ( 0.100000E-05)
 Charge distance                   (target) :  0.312694E-02  ( 0.100000E-04)
 
++++++++++++++++++++++++++++++++++++++++++++++++++++++++++++++++++++++++++++++++
| SCF iteration number :    3                                                  +
++++++++++++++++++++++++++++++++++++++++++++++++++++++++++++++++++++++++++++++++
 Total energy                               :      -578.38664830
 _______________________________________________________________
 Fermi energy                               :         0.19600041
 Kinetic energy                             :       578.86739656
 Coulomb energy                             :     -1117.54812172
 Exchange energy                            :       -37.55939261
 Correlation energy                         :        -2.14653053
 
 DOS at Fermi energy (states/Ha/cell)       :         0.00000000
 
 Electron charges :
     core                                   :        20.00000000
     core leakage                           :         0.00464704
     valence                                :         8.00000000
     interstitial                           :         3.85128031
     charge in muffin-tin spheres :
                  atom     1    Si          :        12.07435985
                  atom     2    Si          :        12.07435985
     total charge in muffin-tins            :        24.14871969
     total charge                           :        28.00000000
 
 Estimated fundamental gap                  :         0.02896727
        valence-band maximum at    1      0.0000  0.0000  0.0000
     conduction-band minimum at    7      0.5000  0.5000  0.0000
 
 Wall time (seconds)                        :         3.69
 
 RMS change in effective potential (target) :  0.111467E-01  ( 0.100000E-05)
 Absolute change in total energy   (target) :  0.285459      ( 0.100000E-05)
 Charge distance                   (target) :  0.231173E-02  ( 0.100000E-04)
 
++++++++++++++++++++++++++++++++++++++++++++++++++++++++++++++++++++++++++++++++
| SCF iteration number :    4                                                  +
++++++++++++++++++++++++++++++++++++++++++++++++++++++++++++++++++++++++++++++++
 Total energy                               :      -578.11155406
 _______________________________________________________________
 Fermi energy                               :         0.20115898
 Kinetic energy                             :       579.08389175
 Coulomb energy                             :     -1117.50118049
 Exchange energy                            :       -37.54845421
 Correlation energy                         :        -2.14581110
 
 DOS at Fermi energy (states/Ha/cell)       :         0.00000000
 
 Electron charges :
     core                                   :        20.00000000
     core leakage                           :         0.00460580
     valence                                :         8.00000000
     interstitial                           :         3.89320344
     charge in muffin-tin spheres :
                  atom     1    Si          :        12.05339828
                  atom     2    Si          :        12.05339828
     total charge in muffin-tins            :        24.10679656
     total charge                           :        28.00000000
 
 Estimated fundamental gap                  :         0.02143827
        valence-band maximum at    1      0.0000  0.0000  0.0000
     conduction-band minimum at    7      0.5000  0.5000  0.0000
 
 Wall time (seconds)                        :         4.16
 
 RMS change in effective potential (target) :  0.647263E-03  ( 0.100000E-05)
 Absolute change in total energy   (target) :  0.275094      ( 0.100000E-05)
 Charge distance                   (target) :  0.401128E-02  ( 0.100000E-04)
 
++++++++++++++++++++++++++++++++++++++++++++++++++++++++++++++++++++++++++++++++
| SCF iteration number :    5                                                  +
++++++++++++++++++++++++++++++++++++++++++++++++++++++++++++++++++++++++++++++++
 Total energy                               :      -578.07228101
 _______________________________________________________________
 Fermi energy                               :         0.20124356
 Kinetic energy                             :       579.10273232
 Coulomb energy                             :     -1117.48216232
 Exchange energy                            :       -37.54707775
 Correlation energy                         :        -2.14577326
 
 DOS at Fermi energy (states/Ha/cell)       :         0.00000000
 
 Electron charges :
     core                                   :        20.00000000
     core leakage                           :         0.00461182
     valence                                :         8.00000000
     interstitial                           :         3.89420487
     charge in muffin-tin spheres :
                  atom     1    Si          :        12.05289756
                  atom     2    Si          :        12.05289756
     total charge in muffin-tins            :        24.10579513
     total charge                           :        28.00000000
 
 Estimated fundamental gap                  :         0.02134715
        valence-band maximum at    1      0.0000  0.0000  0.0000
     conduction-band minimum at    7      0.5000  0.5000  0.0000
 
 Wall time (seconds)                        :         4.62
 
 RMS change in effective potential (target) :  0.567182E-04  ( 0.100000E-05)
 Absolute change in total energy   (target) :  0.392730E-01  ( 0.100000E-05)
 Charge distance                   (target) :  0.885726E-04  ( 0.100000E-04)
 
++++++++++++++++++++++++++++++++++++++++++++++++++++++++++++++++++++++++++++++++
| SCF iteration number :    6                                                  +
++++++++++++++++++++++++++++++++++++++++++++++++++++++++++++++++++++++++++++++++
 Total energy                               :      -578.07359182
 _______________________________________________________________
 Fermi energy                               :         0.20126614
 Kinetic energy                             :       579.10382268
 Coulomb energy                             :     -1117.48445186
 Exchange energy                            :       -37.54718859
 Correlation energy                         :        -2.14577406
 
 DOS at Fermi energy (states/Ha/cell)       :         0.00000000
 
 Electron charges :
     core                                   :        20.00000000
     core leakage                           :         0.00461143
     valence                                :         8.00000000
     interstitial                           :         3.89430851
     charge in muffin-tin spheres :
                  atom     1    Si          :        12.05284574
                  atom     2    Si          :        12.05284574
     total charge in muffin-tins            :        24.10569149
     total charge                           :        28.00000000
 
 Estimated fundamental gap                  :         0.02132876
        valence-band maximum at    1      0.0000  0.0000  0.0000
     conduction-band minimum at    7      0.5000  0.5000  0.0000
 
 Wall time (seconds)                        :         5.09
 
 RMS change in effective potential (target) :  0.668509E-05  ( 0.100000E-05)
 Absolute change in total energy   (target) :  0.131081E-02  ( 0.100000E-05)
 Charge distance                   (target) :  0.161351E-04  ( 0.100000E-04)
 
++++++++++++++++++++++++++++++++++++++++++++++++++++++++++++++++++++++++++++++++
| SCF iteration number :    7                                                  +
++++++++++++++++++++++++++++++++++++++++++++++++++++++++++++++++++++++++++++++++
 Total energy                               :      -578.07392982
 _______________________________________________________________
 Fermi energy                               :         0.20126205
 Kinetic energy                             :       579.10335217
 Coulomb energy                             :     -1117.48431698
 Exchange energy                            :       -37.54719045
 Correlation energy                         :        -2.14577457
 
 DOS at Fermi energy (states/Ha/cell)       :         0.00000000
 
 Electron charges :
     core                                   :        20.00000000
     core leakage                           :         0.00461141
     valence                                :         8.00000000
     interstitial                           :         3.89426985
     charge in muffin-tin spheres :
                  atom     1    Si          :        12.05286507
                  atom     2    Si          :        12.05286507
     total charge in muffin-tins            :        24.10573015
     total charge                           :        28.00000000
 
 Estimated fundamental gap                  :         0.02133414
        valence-band maximum at    1      0.0000  0.0000  0.0000
     conduction-band minimum at    7      0.5000  0.5000  0.0000
 
 Wall time (seconds)                        :         5.56
 
 RMS change in effective potential (target) :  0.651115E-06  ( 0.100000E-05)
 Absolute change in total energy   (target) :  0.338001E-03  ( 0.100000E-05)
 Charge distance                   (target) :  0.359182E-05  ( 0.100000E-04)
 
++++++++++++++++++++++++++++++++++++++++++++++++++++++++++++++++++++++++++++++++
| SCF iteration number :    8                                                  +
++++++++++++++++++++++++++++++++++++++++++++++++++++++++++++++++++++++++++++++++
 Total energy                               :      -578.07389082
 _______________________________________________________________
 Fermi energy                               :         0.20126195
 Kinetic energy                             :       579.10336595
 Coulomb energy                             :     -1117.48429343
 Exchange energy                            :       -37.54718882
 Correlation energy                         :        -2.14577453
 
 DOS at Fermi energy (states/Ha/cell)       :         0.00000000
 
 Electron charges :
     core                                   :        20.00000000
     core leakage                           :         0.00461142
     valence                                :         8.00000000
     interstitial                           :         3.89427037
     charge in muffin-tin spheres :
                  atom     1    Si          :        12.05286482
                  atom     2    Si          :        12.05286482
     total charge in muffin-tins            :        24.10572963
     total charge                           :        28.00000000
 
 Estimated fundamental gap                  :         0.02133416
        valence-band maximum at    1      0.0000  0.0000  0.0000
     conduction-band minimum at    7      0.5000  0.5000  0.0000
 
 Wall time (seconds)                        :         6.04
 
 RMS change in effective potential (target) :  0.289877E-07  ( 0.100000E-05)
 Absolute change in total energy   (target) :  0.389980E-04  ( 0.100000E-05)
 Charge distance                   (target) :  0.919005E-07  ( 0.100000E-04)
 
++++++++++++++++++++++++++++++++++++++++++++++++++++++++++++++++++++++++++++++++
| SCF iteration number :    9                                                  +
++++++++++++++++++++++++++++++++++++++++++++++++++++++++++++++++++++++++++++++++
 Total energy                               :      -578.07389190
 _______________________________________________________________
 Fermi energy                               :         0.20126196
 Kinetic energy                             :       579.10336613
 Coulomb energy                             :     -1117.48429462
 Exchange energy                            :       -37.54718888
 Correlation energy                         :        -2.14577453
 
 DOS at Fermi energy (states/Ha/cell)       :         0.00000000
 
 Electron charges :
     core                                   :        20.00000000
     core leakage                           :         0.00461142
     valence                                :         8.00000000
     interstitial                           :         3.89427045
     charge in muffin-tin spheres :
                  atom     1    Si          :        12.05286478
                  atom     2    Si          :        12.05286478
     total charge in muffin-tins            :        24.10572955
     total charge                           :        28.00000000
 
 Estimated fundamental gap                  :         0.02133415
        valence-band maximum at    1      0.0000  0.0000  0.0000
     conduction-band minimum at    7      0.5000  0.5000  0.0000
 
 Wall time (seconds)                        :         6.52
 
 RMS change in effective potential (target) :  0.112730E-08  ( 0.100000E-05)
 Absolute change in total energy   (target) :  0.107895E-05  ( 0.100000E-05)
 Charge distance                   (target) :  0.118318E-07  ( 0.100000E-04)
 
++++++++++++++++++++++++++++++++++++++++++++++++++++++++++++++++++++++++++++++++
| SCF iteration number :   10                                                  +
++++++++++++++++++++++++++++++++++++++++++++++++++++++++++++++++++++++++++++++++
 Total energy                               :      -578.07389185
 _______________________________________________________________
 Fermi energy                               :         0.20126196
 Kinetic energy                             :       579.10336612
 Coulomb energy                             :     -1117.48429457
 Exchange energy                            :       -37.54718887
 Correlation energy                         :        -2.14577453
 
 DOS at Fermi energy (states/Ha/cell)       :         0.00000000
 
 Electron charges :
     core                                   :        20.00000000
     core leakage                           :         0.00461142
     valence                                :         8.00000000
     interstitial                           :         3.89427045
     charge in muffin-tin spheres :
                  atom     1    Si          :        12.05286478
                  atom     2    Si          :        12.05286478
     total charge in muffin-tins            :        24.10572955
     total charge                           :        28.00000000
 
 Estimated fundamental gap                  :         0.02133415
        valence-band maximum at    1      0.0000  0.0000  0.0000
     conduction-band minimum at    7      0.5000  0.5000  0.0000
 
 Wall time (seconds)                        :         7.00
 
 RMS change in effective potential (target) :  0.121025E-09  ( 0.100000E-05)
 Absolute change in total energy   (target) :  0.484207E-07  ( 0.100000E-05)
 Charge distance                   (target) :  0.245959E-09  ( 0.100000E-04)
 
++++++++++++++++++++++++++++++++++++++++++++++++++++++++++++++++++++++++++++++++
| SCF iteration number :   11                                                  +
++++++++++++++++++++++++++++++++++++++++++++++++++++++++++++++++++++++++++++++++
 Total energy                               :      -578.07389186
 _______________________________________________________________
 Fermi energy                               :         0.20126196
 Kinetic energy                             :       579.10336612
 Coulomb energy                             :     -1117.48429458
 Exchange energy                            :       -37.54718887
 Correlation energy                         :        -2.14577453
 
 DOS at Fermi energy (states/Ha/cell)       :         0.00000000
 
 Electron charges :
     core                                   :        20.00000000
     core leakage                           :         0.00461142
     valence                                :         8.00000000
     interstitial                           :         3.89427045
     charge in muffin-tin spheres :
                  atom     1    Si          :        12.05286478
                  atom     2    Si          :        12.05286478
     total charge in muffin-tins            :        24.10572955
     total charge                           :        28.00000000
 
 Estimated fundamental gap                  :         0.02133415
        valence-band maximum at    1      0.0000  0.0000  0.0000
     conduction-band minimum at    7      0.5000  0.5000  0.0000
 
 Wall time (seconds)                        :         7.48
 
 RMS change in effective potential (target) :  0.214557E-11  ( 0.100000E-05)
 Absolute change in total energy   (target) :  0.510522E-08  ( 0.100000E-05)
 Charge distance                   (target) :  0.195056E-10  ( 0.100000E-04)
                                                                                
++++++++++++++++++++++++++++++++++++++++++++++++++++++++++++++++++++++++++++++++
| Convergency criteria checked for the last 2 iterations                       +
| Convergence targets achieved. Performing final SCF iteration                 +
++++++++++++++++++++++++++++++++++++++++++++++++++++++++++++++++++++++++++++++++
 Total energy                               :      -578.07389186
 _______________________________________________________________
 Fermi energy                               :         0.20126196
 Kinetic energy                             :       579.10336612
 Coulomb energy                             :     -1117.48429458
 Exchange energy                            :       -37.54718887
 Correlation energy                         :        -2.14577453
 
 DOS at Fermi energy (states/Ha/cell)       :         0.00000000
 
 Electron charges :
     core                                   :        20.00000000
     core leakage                           :         0.00461142
     valence                                :         8.00000000
     interstitial                           :         3.89427045
     charge in muffin-tin spheres :
                  atom     1    Si          :        12.05286478
                  atom     2    Si          :        12.05286478
     total charge in muffin-tins            :        24.10572955
     total charge                           :        28.00000000
 
 Estimated fundamental gap                  :         0.02133415
        valence-band maximum at    1      0.0000  0.0000  0.0000
     conduction-band minimum at    7      0.5000  0.5000  0.0000
 
++++++++++++++++++++++++++++++++++++++++++++++++++++++++++++++++++++++++++++++++
| Self-consistent loop stopped                                                 +
++++++++++++++++++++++++++++++++++++++++++++++++++++++++++++++++++++++++++++++++
 STATE.OUT is written
 
********************************************************************************
| Groundstate module stopped                                                   *
********************************************************************************
 
 Total time spent (seconds)                 :         7.26
 
================================================================================
| EXCITING CARBON stopped                                                      =
================================================================================
