<?xml version="1.0" encoding="ISO-8859-1"?>
<modeling>
 <generator>
  <i name="program" type="string">vasp </i>
  <i name="version" type="string">5.4.4.18Apr17-6-g9f103f2a35  </i>
  <i name="subversion" type="string">(build Jul 30 2020 14:31:59) complex            parallel </i>
  <i name="platform" type="string">LinuxIFC </i>
  <i name="date" type="string">2022 10 17 </i>
  <i name="time" type="string">23:38:27 </i>
 </generator>
 <incar>
  <i type="int" name="ISTART">     0</i>
  <i type="string" name="PREC">accurate</i>
  <i type="string" name="ALGO"> Fast</i>
  <i type="int" name="ISPIN">     2</i>
  <i type="int" name="ICHARG">     2</i>
  <i type="int" name="IBRION">     2</i>
  <i name="EDIFF">      0.00000100</i>
  <i name="EDIFFG">     -0.02000000</i>
  <i type="int" name="NSW">    60</i>
  <i type="int" name="ISIF">     2</i>
  <i name="ENCUT">    400.00000000</i>
  <i name="POTIM">      0.10000000</i>
  <i type="string" name="LREAL"> AUTO</i>
  <i type="int" name="ISMEAR">     0</i>
  <i name="SIGMA">      0.01000000</i>
  <i type="logical" name="LWAVE"> F  </i>
  <i type="logical" name="LCHARG"> F  </i>
  <i type="logical" name="LASPH"> T  </i>
  <v type="int" name="KPOINT_BSE">    -1     0     0     0</v>
  <i type="string" name="GGA"> RP</i>
  <i type="logical" name="LDIPOL"> T  </i>
  <i type="int" name="IDIPOL">     3</i>
  <v name="DIPOL">      0.50000000      0.50000000      0.50000000</v>
  <i type="logical" name="LASPH"> T  </i>
 </incar>
 <structure name="primitive_cell" >
  <crystal>
   <varray name="basis" >
    <v>      15.00000000      15.00300000       0.00000000 </v>
    <v>       0.00000000      15.02000000      15.00000000 </v>
    <v>      15.01000000       0.00000000      15.15034000 </v>
   </varray>
   <i name="volume">   6791.29705200 </i>
   <varray name="rec_basis" >
    <v>       0.03350731       0.03315272      -0.03319693 </v>
    <v>      -0.03346939       0.03346269       0.03315936 </v>
    <v>       0.03313726      -0.03313064       0.03317481 </v>
   </varray>
  </crystal>
  <varray name="positions" >
   <v>      -0.49999938      -0.49999904      -0.49071110 </v>
  </varray>
 </structure>
 <varray name="primitive_index" >
  <v type="int" >        1 </v>
 </varray>
 <kpoints>
  <generation param="Monkhorst-Pack">
   <v type="int" name="divisions">       1        1        1 </v>
   <v name="usershift">      0.00000000       0.00000000       0.00000000 </v>
   <v name="genvec1">      1.00000000       0.00000000       0.00000000 </v>
   <v name="genvec2">      0.00000000       1.00000000       0.00000000 </v>
   <v name="genvec3">      0.00000000      -0.00000000       1.00000000 </v>
   <v name="shift">      0.00000000       0.00000000       0.00000000 </v>
  </generation>
  <varray name="kpointlist" >
   <v>       0.00000000       0.00000000       0.00000000 </v>
  </varray>
  <varray name="weights" >
   <v>       1.00000000 </v>
  </varray>
 </kpoints>
 <parameters>
  <separator name="general" >
   <i type="string" name="SYSTEM">unknown system</i>
   <i type="logical" name="LCOMPAT"> F  </i>
  </separator>
  <separator name="electronic" >
   <i type="string" name="PREC">accura</i>
   <i name="ENMAX">    400.00000000</i>
   <i name="ENAUG">    627.11200000</i>
   <i name="EDIFF">      0.00000100</i>
   <i type="int" name="IALGO">    68</i>
   <i type="int" name="IWAVPR">    11</i>
   <i type="int" name="NBANDS">    10</i>
   <i name="NELECT">      5.00000000</i>
   <i type="int" name="TURBO">     0</i>
   <i type="int" name="IRESTART">     0</i>
   <i type="int" name="NREBOOT">     0</i>
   <i type="int" name="NMIN">     0</i>
   <i name="EREF">      0.00000000</i>
   <separator name="electronic smearing" >
    <i type="int" name="ISMEAR">     0</i>
    <i name="SIGMA">      0.01000000</i>
    <i name="KSPACING">      0.50000000</i>
    <i type="logical" name="KGAMMA"> T  </i>
   </separator>
   <separator name="electronic projectors" >
    <i type="logical" name="LREAL"> T  </i>
    <v name="ROPT">     -0.00025000</v>
    <i type="int" name="LMAXPAW">  -100</i>
    <i type="int" name="LMAXMIX">     2</i>
    <i type="logical" name="NLSPLINE"> F  </i>
   </separator>
   <separator name="electronic startup" >
    <i type="int" name="ISTART">     0</i>
    <i type="int" name="ICHARG">     2</i>
    <i type="int" name="INIWAV">     1</i>
   </separator>
   <separator name="electronic spin" >
    <i type="int" name="ISPIN">     2</i>
    <i type="logical" name="LNONCOLLINEAR"> F  </i>
    <v name="MAGMOM">      1.00000000</v>
    <i name="NUPDOWN">     -1.00000000</i>
    <i type="logical" name="LSORBIT"> F  </i>
    <v name="SAXIS">      0.00000000      0.00000000      1.00000000</v>
    <i type="logical" name="LSPIRAL"> F  </i>
    <v name="QSPIRAL">      0.00000000      0.00000000      0.00000000</v>
    <i type="logical" name="LZEROZ"> F  </i>
   </separator>
   <separator name="electronic exchange-correlation" >
    <i type="logical" name="LASPH"> T  </i>
    <i type="logical" name="LMETAGGA"> F  </i>
   </separator>
   <separator name="electronic convergence" >
    <i type="int" name="NELM">    60</i>
    <i type="int" name="NELMDL">    -5</i>
    <i type="int" name="NELMIN">     2</i>
    <i name="ENINI">    400.00000000</i>
    <separator name="electronic convergence detail" >
     <i type="logical" name="LDIAG"> T  </i>
     <i type="logical" name="LSUBROT"> F  </i>
     <i name="WEIMIN">      0.00100000</i>
     <i name="EBREAK">      0.00000002</i>
     <i name="DEPER">      0.30000000</i>
     <i type="int" name="NRMM">     4</i>
     <i name="TIME">      0.40000000</i>
    </separator>
   </separator>
   <separator name="electronic mixer" >
    <i name="AMIX">      0.40000000</i>
    <i name="BMIX">      1.00000000</i>
    <i name="AMIN">      0.10000000</i>
    <i name="AMIX_MAG">      1.60000000</i>
    <i name="BMIX_MAG">      1.00000000</i>
    <separator name="electronic mixer details" >
     <i type="int" name="IMIX">     4</i>
     <i type="logical" name="MIXFIRST"> F  </i>
     <i type="int" name="MAXMIX">   -45</i>
     <i name="WC">    100.00000000</i>
     <i type="int" name="INIMIX">     1</i>
     <i type="int" name="MIXPRE">     1</i>
     <i type="int" name="MREMOVE">     5</i>
    </separator>
   </separator>
   <separator name="electronic dipolcorrection" >
    <i type="logical" name="LDIPOL"> T  </i>
    <i type="logical" name="LMONO"> F  </i>
    <i type="int" name="IDIPOL">     3</i>
    <i name="EPSILON">      1.00000000</i>
    <v name="DIPOL">      0.50000000      0.50000000      0.50000000</v>
    <i name="EFIELD">      0.00000000</i>
   </separator>
  </separator>
  <separator name="grids" >
   <i type="int" name="NGX">   140</i>
   <i type="int" name="NGY">   140</i>
   <i type="int" name="NGZ">   140</i>
   <i type="int" name="NGXF">   280</i>
   <i type="int" name="NGYF">   280</i>
   <i type="int" name="NGZF">   280</i>
   <i type="logical" name="ADDGRID"> F  </i>
  </separator>
  <separator name="ionic" >
   <i type="int" name="NSW">    60</i>
   <i type="int" name="IBRION">     2</i>
   <i type="int" name="MDALGO">     0</i>
   <i type="int" name="ISIF">     2</i>
   <i name="PSTRESS">      0.00000000</i>
   <i name="EDIFFG">     -0.02000000</i>
   <i type="int" name="NFREE">     1</i>
   <i name="POTIM">      0.10000000</i>
   <i name="SMASS">     -3.00000000</i>
   <i name="SCALEE">      1.00000000</i>
  </separator>
  <separator name="ionic md" >
   <i name="TEBEG">      0.00010000</i>
   <i name="TEEND">      0.00010000</i>
   <i type="int" name="NBLOCK">     1</i>
   <i type="int" name="KBLOCK">    60</i>
   <i type="int" name="NPACO">   256</i>
   <i name="APACO">     16.00000000</i>
  </separator>
  <separator name="symmetry" >
   <i type="int" name="ISYM">     2</i>
   <i name="SYMPREC">      0.00001000</i>
  </separator>
  <separator name="dos" >
   <i type="int" name="LORBIT">     0</i>
   <v name="RWIGS">     -1.00000000</v>
   <i type="int" name="NEDOS">   301</i>
   <i name="EMIN">     10.00000000</i>
   <i name="EMAX">    -10.00000000</i>
   <i name="EFERMI">      0.00000000</i>
  </separator>
  <separator name="writing" >
   <i type="int" name="NWRITE">     2</i>
   <i type="logical" name="LWAVE"> F  </i>
   <i type="logical" name="LDOWNSAMPLE"> F  </i>
   <i type="logical" name="LCHARG"> F  </i>
   <i type="logical" name="LPARD"> F  </i>
   <i type="logical" name="LVTOT"> F  </i>
   <i type="logical" name="LVHAR"> F  </i>
   <i type="logical" name="LELF"> F  </i>
   <i type="logical" name="LOPTICS"> F  </i>
   <v name="STM">      0.00000000      0.00000000      0.00000000      0.00000000      0.00000000      0.00000000      0.00000000</v>
  </separator>
  <separator name="performance" >
   <i type="int" name="NPAR">     5</i>
   <i type="int" name="NSIM">     4</i>
   <i type="int" name="NBLK">    -1</i>
   <i type="logical" name="LPLANE"> T  </i>
   <i type="logical" name="LSCALAPACK"> T  </i>
   <i type="logical" name="LSCAAWARE"> F  </i>
   <i type="logical" name="LSCALU"> F  </i>
   <i type="logical" name="LASYNC"> F  </i>
   <i type="logical" name="LORBITALREAL"> F  </i>
  </separator>
  <separator name="miscellaneous" >
   <i type="int" name="IDIOT">     3</i>
   <i type="int" name="ISPECIAL">     0</i>
   <i type="logical" name="LMUSIC"> F  </i>
   <v name="POMASS">     14.00100000</v>
   <v name="DARWINR">      0.00000000</v>
   <v name="DARWINV">      1.00000000</v>
   <i type="logical" name="LCORR"> T  </i>
  </separator>
  <i type="logical" name="GGA_COMPAT"> T  </i>
  <i type="logical" name="LBERRY"> F  </i>
  <i type="int" name="ICORELEVEL">     0</i>
  <i type="logical" name="LDAU"> F  </i>
  <i type="int" name="I_CONSTRAINED_M">     0</i>
  <separator name="electronic exchange-correlation" >
   <i type="string" name="GGA">RP</i>
   <i type="int" name="VOSKOWN">     0</i>
   <i type="logical" name="LHFCALC"> F  </i>
   <i type="string" name="PRECFOCK"></i>
   <i type="logical" name="LSYMGRAD"> F  </i>
   <i type="logical" name="LHFONE"> F  </i>
   <i type="logical" name="LRHFCALC"> F  </i>
   <i type="logical" name="LTHOMAS"> F  </i>
   <i type="logical" name="LMODELHF"> F  </i>
   <i name="ENCUT4O">     -1.00000000</i>
   <i type="int" name="EXXOEP">     0</i>
   <i type="int" name="FOURORBIT">     0</i>
   <i name="AEXX">      0.00000000</i>
   <i name="HFALPHA">      0.00000000</i>
   <i name="MCALPHA">      0.00000000</i>
   <i name="ALDAX">      1.00000000</i>
   <i name="AGGAX">      1.00000000</i>
   <i name="ALDAC">      1.00000000</i>
   <i name="AGGAC">      1.00000000</i>
   <i type="int" name="NKREDX">     1</i>
   <i type="int" name="NKREDY">     1</i>
   <i type="int" name="NKREDZ">     1</i>
   <i type="logical" name="SHIFTRED"> F  </i>
   <i type="logical" name="ODDONLY"> F  </i>
   <i type="logical" name="EVENONLY"> F  </i>
   <i type="int" name="LMAXFOCK">     0</i>
   <i type="int" name="NMAXFOCKAE">     0</i>
   <i type="logical" name="LFOCKAEDFT"> F  </i>
   <i name="HFSCREEN">      0.00000000</i>
   <i name="HFSCREENC">      0.00000000</i>
   <i type="int" name="NBANDSGWLOW">     0</i>
  </separator>
  <separator name="vdW DFT" >
   <i type="logical" name="LUSE_VDW"> F  </i>
   <i name="Zab_VDW">     -0.84910000</i>
   <i name="PARAM1">      0.12340000</i>
   <i name="PARAM2">      1.00000000</i>
   <i name="PARAM3">      0.00000000</i>
  </separator>
  <separator name="model GW" >
   <i type="int" name="MODEL_GW">     0</i>
   <i name="MODEL_EPS0">   4074.77823120</i>
   <i name="MODEL_ALPHA">      1.00000000</i>
  </separator>
  <separator name="linear response parameters" >
   <i type="logical" name="LEPSILON"> F  </i>
   <i type="logical" name="LRPA"> F  </i>
   <i type="logical" name="LNABLA"> F  </i>
   <i type="logical" name="LVEL"> F  </i>
   <i type="int" name="KINTER">     0</i>
   <i name="CSHIFT">      0.10000000</i>
   <i name="OMEGAMAX">     -1.00000000</i>
   <i name="DEG_THRESHOLD">      0.00200000</i>
   <i name="RTIME">     -0.10000000</i>
   <i name="WPLASMAI">      0.00000000</i>
   <v name="DFIELD">      0.00000000      0.00000000      0.00000000</v>
   <v name="WPLASMA">      0.00000000      0.00000000      0.00000000      0.00000000      0.00000000      0.00000000      0.00000000      0.00000000      0.00000000</v>
  </separator>
  <separator name="orbital magnetization" >
   <i type="logical" name="NUCIND"> F  </i>
   <v name="MAGPOS">      0.00000000      0.00000000      0.00000000</v>
   <i type="logical" name="LNICSALL"> T  </i>
   <i type="logical" name="ORBITALMAG"> F  </i>
   <i type="logical" name="LMAGBLOCH"> F  </i>
   <i type="logical" name="LCHIMAG"> F  </i>
   <i type="logical" name="LGAUGE"> T  </i>
   <i type="int" name="MAGATOM">     0</i>
   <v name="MAGDIPOL">      0.00000000      0.00000000      0.00000000</v>
   <v name="AVECCONST">      0.00000000      0.00000000      0.00000000</v>
  </separator>
  <separator name="response functions" >
   <i type="logical" name="LADDER"> F  </i>
   <i type="logical" name="LRPAFORCE"> F  </i>
   <i type="logical" name="LFXC"> F  </i>
   <i type="logical" name="LHARTREE"> T  </i>
   <i type="int" name="IBSE">     0</i>
   <v type="int" name="KPOINT">    -1     0     0     0</v>
   <i type="logical" name="LTCTE"> F  </i>
   <i type="logical" name="LTETE"> F  </i>
   <i type="logical" name="LTRIPLET"> F  </i>
   <i type="logical" name="LFXCEPS"> F  </i>
   <i type="logical" name="LFXHEG"> F  </i>
   <i type="int" name="NATURALO">     2</i>
   <i type="logical" name="L2ORDER"> F  </i>
   <i type="logical" name="LMP2LT"> F  </i>
   <i type="logical" name="LUSEW"> F  </i>
   <i name="ENCUTGW">     -2.00000000</i>
   <i name="ENCUTGWSOFT">     -2.00000000</i>
   <i name="ENCUTLF">     -1.00000000</i>
   <i type="int" name="LMAXMP2">    -1</i>
   <i name="SCISSOR">      0.00000000</i>
   <i type="int" name="NOMEGA">     0</i>
   <i type="int" name="NOMEGAR">     0</i>
   <i type="int" name="NBANDSGW">    -1</i>
   <i type="int" name="NBANDSO">    -1</i>
   <i type="int" name="NBANDSV">    -1</i>
   <i type="int" name="NELM">     1</i>
   <i type="int" name="NELMHF">     1</i>
   <i type="int" name="DIM">     3</i>
   <i type="int" name="ANTIRES">     0</i>
   <i name="OMEGAMAX">    -30.00000000</i>
   <i name="OMEGAMIN">    -30.00000000</i>
   <i name="OMEGATL">   -200.00000000</i>
   <i type="int" name="OMEGAGRID">   140</i>
   <i name="CSHIFT">     -0.10000000</i>
   <i type="logical" name="SELFENERGY"> F  </i>
   <i type="logical" name="LSPECTRAL"> F  </i>
   <i type="logical" name="LSPECTRALGW"> F  </i>
   <i type="logical" name="LSINGLES"> F  </i>
   <i type="logical" name="LFERMIGW"> F  </i>
   <i type="logical" name="ODDONLYGW"> F  </i>
   <i type="logical" name="EVENONLYGW"> F  </i>
   <i type="int" name="NKREDLFX">     1</i>
   <i type="int" name="NKREDLFY">     1</i>
   <i type="int" name="NKREDLFZ">     1</i>
   <i type="int" name="MAXMEM">  2800</i>
   <i type="int" name="TELESCOPE">     0</i>
   <i type="int" name="TAUPAR">     1</i>
   <i type="int" name="OMEGAPAR">    -1</i>
   <i name="LAMBDA">      1.00000000</i>
  </separator>
  <separator name="External order field" >
   <i name="OFIELD_KAPPA">      0.00000000</i>
   <v name="OFIELD_K">      0.00000000      0.00000000      0.00000000</v>
   <i name="OFIELD_Q6_NEAR">      0.00000000</i>
   <i name="OFIELD_Q6_FAR">      0.00000000</i>
   <i name="OFIELD_A">      0.00000000</i>
  </separator>
 </parameters>
 <atominfo>
  <atoms>       1 </atoms>
  <types>       1 </types>
  <array name="atoms" >
   <dimension dim="1">ion</dimension>
   <field type="string">element</field>
   <field type="int">atomtype</field>
   <set>
    <rc><c>N </c><c>   1</c></rc>
   </set>
  </array>
  <array name="atomtypes" >
   <dimension dim="1">type</dimension>
   <field type="int">atomspertype</field>
   <field type="string">element</field>
   <field>mass</field>
   <field>valence</field>
   <field type="string">pseudopotential</field>
   <set>
    <rc><c>   1</c><c>N </c><c>     14.00100000</c><c>      5.00000000</c><c>  PAW_PBE N 08Apr2002                   </c></rc>
   </set>
  </array>
 </atominfo>
 <structure name="initialpos" >
  <crystal>
   <varray name="basis" >
    <v>      15.00000000      15.00300000       0.00000000 </v>
    <v>       0.00000000      15.02000000      15.00000000 </v>
    <v>      15.01000000       0.00000000      15.15034000 </v>
   </varray>
   <i name="volume">   6791.29705200 </i>
   <varray name="rec_basis" >
    <v>       0.03350731       0.03315272      -0.03319693 </v>
    <v>      -0.03346939       0.03346269       0.03315936 </v>
    <v>       0.03313726      -0.03313064       0.03317481 </v>
   </varray>
  </crystal>
  <varray name="positions" >
   <v>       0.50000062       0.50000096       0.50928890 </v>
  </varray>
 </structure>
 <calculation>
  <scstep>
   <time name="dav">    0.28    0.30</time>
   <time name="total">    0.96    0.99</time>
   <dipole>
    <v name="dipole">     -0.00000028       0.00000000      -0.00000028 </v>
    <i name="Tr[quadrupol]">  -1124.75778114 </i>
    <i name="Echarged">      0.00000000 </i>
    <i name="Edipol_quadrupol">      0.00000000 </i>
    <i name="Eion">      0.00000000 </i>
   </dipole>
   <energy>
    <i name="alphaZ">      0.01586530 </i>
    <i name="ewald">    -27.45274585 </i>
    <i name="hartreedc">   -195.14929240 </i>
    <i name="XCdc">     17.46887415 </i>
    <i name="pawpsdc">    205.05726297 </i>
    <i name="pawaedc">   -206.12097309 </i>
    <i name="eentropy">     -0.00000000 </i>
    <i name="bandstr">    -27.46751480 </i>
    <i name="atom">    264.50327051 </i>
    <i name="e_fr_energy">     30.85474679 </i>
    <i name="e_wo_entrp">     30.85474679 </i>
    <i name="e_0_energy">     30.85474679 </i>
   </energy>
  </scstep>
  <scstep>
   <time name="dav">    0.32    0.32</time>
   <time name="total">    0.32    0.32</time>
   <dipole>
    <v name="dipole">     -0.00000028       0.00000000      -0.00000028 </v>
    <i name="Tr[quadrupol]">  -1124.75778114 </i>
    <i name="Echarged">      0.00000000 </i>
    <i name="Edipol_quadrupol">      0.00000000 </i>
    <i name="Eion">      0.00000000 </i>
   </dipole>
   <energy>
    <i name="e_fr_energy">     10.02349778 </i>
    <i name="e_wo_entrp">     10.02349778 </i>
    <i name="e_0_energy">     10.02349778 </i>
   </energy>
  </scstep>
  <scstep>
   <time name="dav">    0.25    0.25</time>
   <time name="total">    0.25    0.25</time>
   <dipole>
    <v name="dipole">     -0.00000028       0.00000000      -0.00000028 </v>
    <i name="Tr[quadrupol]">  -1124.75778114 </i>
    <i name="Echarged">      0.00000000 </i>
    <i name="Edipol_quadrupol">      0.00000000 </i>
    <i name="Eion">      0.00000000 </i>
   </dipole>
   <energy>
    <i name="e_fr_energy">     -0.66043833 </i>
    <i name="e_wo_entrp">     -0.66043833 </i>
    <i name="e_0_energy">     -0.66043833 </i>
   </energy>
  </scstep>
  <scstep>
   <time name="dav">    0.18    0.19</time>
   <time name="total">    0.18    0.19</time>
   <dipole>
    <v name="dipole">     -0.00000028       0.00000000      -0.00000028 </v>
    <i name="Tr[quadrupol]">  -1124.75778114 </i>
    <i name="Echarged">      0.00000000 </i>
    <i name="Edipol_quadrupol">      0.00000000 </i>
    <i name="Eion">      0.00000000 </i>
   </dipole>
   <energy>
    <i name="e_fr_energy">     -1.71548005 </i>
    <i name="e_wo_entrp">     -1.71548005 </i>
    <i name="e_0_energy">     -1.71548005 </i>
   </energy>
  </scstep>
  <scstep>
   <time name="dav">    0.32    0.33</time>
   <time name="total">    0.93    0.93</time>
   <dipole>
    <v name="dipole">     -0.00000028       0.00000000      -0.00000028 </v>
    <i name="Tr[quadrupol]">  -1124.75778114 </i>
    <i name="Echarged">      0.00000000 </i>
    <i name="Edipol_quadrupol">      0.00000000 </i>
    <i name="Eion">      0.00000000 </i>
   </dipole>
   <energy>
    <i name="e_fr_energy">     -1.72870070 </i>
    <i name="e_wo_entrp">     -1.72870070 </i>
    <i name="e_0_energy">     -1.72870070 </i>
   </energy>
  </scstep>
  <scstep>
   <time name="diag">    0.05    0.06</time>
   <time name="diis">    0.17    0.17</time>
   <time name="orth">    0.00    0.00</time>
   <time name="total">    1.49    1.51</time>
   <dipole>
    <v name="dipole">      0.00002621       0.00000000       0.00002645 </v>
    <i name="Tr[quadrupol]">  -1124.76184653 </i>
    <i name="Echarged">      0.00000000 </i>
    <i name="Edipol_quadrupol">      0.00000000 </i>
    <i name="Eion">      0.00000000 </i>
   </dipole>
   <energy>
    <i name="e_fr_energy">      1.67148460 </i>
    <i name="e_wo_entrp">      1.67148460 </i>
    <i name="e_0_energy">      1.67148460 </i>
   </energy>
  </scstep>
  <scstep>
   <time name="diag">    0.04    0.04</time>
   <time name="diis">    0.16    0.16</time>
   <time name="orth">    0.00    0.00</time>
   <time name="total">    1.45    1.45</time>
   <dipole>
    <v name="dipole">      0.00013780       0.00000000       0.00013909 </v>
    <i name="Tr[quadrupol]">  -1124.77981666 </i>
    <i name="Echarged">      0.00000000 </i>
    <i name="Edipol_quadrupol">      0.00000000 </i>
    <i name="Eion">      0.00000000 </i>
   </dipole>
   <energy>
    <i name="e_fr_energy">     -1.14865214 </i>
    <i name="e_wo_entrp">     -1.14865214 </i>
    <i name="e_0_energy">     -1.14865214 </i>
   </energy>
  </scstep>
  <scstep>
   <time name="diag">    0.04    0.04</time>
   <time name="diis">    0.16    0.16</time>
   <time name="orth">    0.00    0.00</time>
   <time name="total">    1.42    1.43</time>
   <dipole>
    <v name="dipole">      0.00022891       0.00000000       0.00023105 </v>
    <i name="Tr[quadrupol]">  -1124.79982087 </i>
    <i name="Echarged">      0.00000000 </i>
    <i name="Edipol_quadrupol">      0.00000000 </i>
    <i name="Eion">      0.00000000 </i>
   </dipole>
   <energy>
    <i name="e_fr_energy">     -2.12120079 </i>
    <i name="e_wo_entrp">     -2.12120079 </i>
    <i name="e_0_energy">     -2.12120079 </i>
   </energy>
  </scstep>
  <scstep>
   <time name="diag">    0.04    0.04</time>
   <time name="diis">    0.16    0.16</time>
   <time name="orth">    0.00    0.00</time>
   <time name="total">    1.43    1.43</time>
   <dipole>
    <v name="dipole">      0.00025746       0.00000000       0.00025987 </v>
    <i name="Tr[quadrupol]">  -1124.80894163 </i>
    <i name="Echarged">      0.00000000 </i>
    <i name="Edipol_quadrupol">      0.00000000 </i>
    <i name="Eion">      0.00000000 </i>
   </dipole>
   <energy>
    <i name="e_fr_energy">     -2.52427220 </i>
    <i name="e_wo_entrp">     -2.52427220 </i>
    <i name="e_0_energy">     -2.52427220 </i>
   </energy>
  </scstep>
  <scstep>
   <time name="diag">    0.04    0.04</time>
   <time name="diis">    0.16    0.16</time>
   <time name="orth">    0.00    0.00</time>
   <time name="total">    1.44    1.44</time>
   <dipole>
    <v name="dipole">      0.00023117       0.00000000       0.00023333 </v>
    <i name="Tr[quadrupol]">  -1124.81647273 </i>
    <i name="Echarged">      0.00000000 </i>
    <i name="Edipol_quadrupol">      0.00000000 </i>
    <i name="Eion">      0.00000000 </i>
   </dipole>
   <energy>
    <i name="e_fr_energy">     -2.79190282 </i>
    <i name="e_wo_entrp">     -2.79190282 </i>
    <i name="e_0_energy">     -2.79190282 </i>
   </energy>
  </scstep>
  <scstep>
   <time name="diag">    0.04    0.04</time>
   <time name="diis">    0.16    0.16</time>
   <time name="orth">    0.00    0.00</time>
   <time name="total">    1.42    1.43</time>
   <dipole>
    <v name="dipole">      0.00019942       0.00000000       0.00020128 </v>
    <i name="Tr[quadrupol]">  -1124.82681711 </i>
    <i name="Echarged">      0.00000000 </i>
    <i name="Edipol_quadrupol">      0.00000000 </i>
    <i name="Eion">      0.00000000 </i>
   </dipole>
   <energy>
    <i name="e_fr_energy">     -2.98919477 </i>
    <i name="e_wo_entrp">     -2.98919477 </i>
    <i name="e_0_energy">     -2.98919477 </i>
   </energy>
  </scstep>
  <scstep>
   <time name="diag">    0.05    0.05</time>
   <time name="diis">    0.15    0.15</time>
   <time name="orth">    0.00    0.00</time>
   <time name="total">    1.48    1.49</time>
   <dipole>
    <v name="dipole">      0.00016847       0.00000000       0.00017005 </v>
    <i name="Tr[quadrupol]">  -1124.83246868 </i>
    <i name="Echarged">      0.00000000 </i>
    <i name="Edipol_quadrupol">      0.00000000 </i>
    <i name="Eion">      0.00000000 </i>
   </dipole>
   <energy>
    <i name="e_fr_energy">     -3.09241500 </i>
    <i name="e_wo_entrp">     -3.09241500 </i>
    <i name="e_0_energy">     -3.09241500 </i>
   </energy>
  </scstep>
  <scstep>
   <time name="diag">    0.04    0.04</time>
   <time name="diis">    0.16    0.16</time>
   <time name="orth">    0.00    0.00</time>
   <time name="total">    1.49    1.50</time>
   <dipole>
    <v name="dipole">      0.00005453       0.00000000       0.00005504 </v>
    <i name="Tr[quadrupol]">  -1124.83833352 </i>
    <i name="Echarged">      0.00000000 </i>
    <i name="Edipol_quadrupol">      0.00000000 </i>
    <i name="Eion">      0.00000000 </i>
   </dipole>
   <energy>
    <i name="e_fr_energy">     -3.12334593 </i>
    <i name="e_wo_entrp">     -3.12334593 </i>
    <i name="e_0_energy">     -3.12334593 </i>
   </energy>
  </scstep>
  <scstep>
   <time name="diag">    0.04    0.04</time>
   <time name="diis">    0.17    0.17</time>
   <time name="orth">    0.00    0.00</time>
   <time name="total">    1.47    1.47</time>
   <dipole>
    <v name="dipole">      0.00001321       0.00000000       0.00001334 </v>
    <i name="Tr[quadrupol]">  -1124.83853273 </i>
    <i name="Echarged">      0.00000000 </i>
    <i name="Edipol_quadrupol">      0.00000000 </i>
    <i name="Eion">      0.00000000 </i>
   </dipole>
   <energy>
    <i name="e_fr_energy">     -3.14479208 </i>
    <i name="e_wo_entrp">     -3.14479208 </i>
    <i name="e_0_energy">     -3.14479208 </i>
   </energy>
  </scstep>
  <scstep>
   <time name="diag">    0.04    0.04</time>
   <time name="diis">    0.16    0.16</time>
   <time name="orth">    0.00    0.00</time>
   <time name="total">    1.45    1.46</time>
   <dipole>
    <v name="dipole">     -0.00005841       0.00000000      -0.00005896 </v>
    <i name="Tr[quadrupol]">  -1124.83629816 </i>
    <i name="Echarged">      0.00000000 </i>
    <i name="Edipol_quadrupol">      0.00000000 </i>
    <i name="Eion">      0.00000000 </i>
   </dipole>
   <energy>
    <i name="e_fr_energy">     -3.15158333 </i>
    <i name="e_wo_entrp">     -3.15158333 </i>
    <i name="e_0_energy">     -3.15158333 </i>
   </energy>
  </scstep>
  <scstep>
   <time name="diag">    0.05    0.05</time>
   <time name="diis">    0.16    0.16</time>
   <time name="orth">    0.00    0.00</time>
   <time name="total">    1.46    1.47</time>
   <dipole>
    <v name="dipole">     -0.00007796       0.00000000      -0.00007869 </v>
    <i name="Tr[quadrupol]">  -1124.83590021 </i>
    <i name="Echarged">      0.00000000 </i>
    <i name="Edipol_quadrupol">      0.00000000 </i>
    <i name="Eion">      0.00000000 </i>
   </dipole>
   <energy>
    <i name="e_fr_energy">     -3.15356148 </i>
    <i name="e_wo_entrp">     -3.15356148 </i>
    <i name="e_0_energy">     -3.15356148 </i>
   </energy>
  </scstep>
  <scstep>
   <time name="diag">    0.04    0.04</time>
   <time name="diis">    0.17    0.17</time>
   <time name="orth">    0.00    0.00</time>
   <time name="total">    1.44    1.45</time>
   <dipole>
    <v name="dipole">     -0.00008681       0.00000000      -0.00008762 </v>
    <i name="Tr[quadrupol]">  -1124.83537858 </i>
    <i name="Echarged">      0.00000000 </i>
    <i name="Edipol_quadrupol">      0.00000000 </i>
    <i name="Eion">      0.00000000 </i>
   </dipole>
   <energy>
    <i name="e_fr_energy">     -3.15476638 </i>
    <i name="e_wo_entrp">     -3.15476638 </i>
    <i name="e_0_energy">     -3.15476638 </i>
   </energy>
  </scstep>
  <scstep>
   <time name="diag">    0.04    0.04</time>
   <time name="diis">    0.16    0.16</time>
   <time name="orth">    0.00    0.00</time>
   <time name="total">    1.43    1.44</time>
   <dipole>
    <v name="dipole">     -0.00008804       0.00000000      -0.00008886 </v>
    <i name="Tr[quadrupol]">  -1124.83467492 </i>
    <i name="Echarged">      0.00000000 </i>
    <i name="Edipol_quadrupol">      0.00000000 </i>
    <i name="Eion">      0.00000000 </i>
   </dipole>
   <energy>
    <i name="e_fr_energy">     -3.15572929 </i>
    <i name="e_wo_entrp">     -3.15572929 </i>
    <i name="e_0_energy">     -3.15572929 </i>
   </energy>
  </scstep>
  <scstep>
   <time name="diag">    0.04    0.04</time>
   <time name="diis">    0.16    0.16</time>
   <time name="orth">    0.00    0.00</time>
   <time name="total">    1.43    1.44</time>
   <dipole>
    <v name="dipole">     -0.00007832       0.00000000      -0.00007906 </v>
    <i name="Tr[quadrupol]">  -1124.83408456 </i>
    <i name="Echarged">      0.00000000 </i>
    <i name="Edipol_quadrupol">      0.00000000 </i>
    <i name="Eion">      0.00000000 </i>
   </dipole>
   <energy>
    <i name="e_fr_energy">     -3.15612433 </i>
    <i name="e_wo_entrp">     -3.15612433 </i>
    <i name="e_0_energy">     -3.15612433 </i>
   </energy>
  </scstep>
  <scstep>
   <time name="diag">    0.04    0.04</time>
   <time name="diis">    0.15    0.15</time>
   <time name="orth">    0.00    0.00</time>
   <time name="total">    1.42    1.43</time>
   <dipole>
    <v name="dipole">     -0.00005824       0.00000000      -0.00005878 </v>
    <i name="Tr[quadrupol]">  -1124.83354538 </i>
    <i name="Echarged">      0.00000000 </i>
    <i name="Edipol_quadrupol">      0.00000000 </i>
    <i name="Eion">      0.00000000 </i>
   </dipole>
   <energy>
    <i name="e_fr_energy">     -3.15621347 </i>
    <i name="e_wo_entrp">     -3.15621347 </i>
    <i name="e_0_energy">     -3.15621347 </i>
   </energy>
  </scstep>
  <scstep>
   <time name="diag">    0.04    0.04</time>
   <time name="diis">    0.15    0.15</time>
   <time name="orth">    0.00    0.00</time>
   <time name="total">    1.42    1.43</time>
   <dipole>
    <v name="dipole">     -0.00003981       0.00000000      -0.00004018 </v>
    <i name="Tr[quadrupol]">  -1124.83310191 </i>
    <i name="Echarged">      0.00000000 </i>
    <i name="Edipol_quadrupol">      0.00000000 </i>
    <i name="Eion">      0.00000000 </i>
   </dipole>
   <energy>
    <i name="e_fr_energy">     -3.15627476 </i>
    <i name="e_wo_entrp">     -3.15627476 </i>
    <i name="e_0_energy">     -3.15627476 </i>
   </energy>
  </scstep>
  <scstep>
   <time name="diag">    0.04    0.04</time>
   <time name="diis">    0.15    0.15</time>
   <time name="orth">    0.00    0.00</time>
   <time name="total">    1.44    1.45</time>
   <dipole>
    <v name="dipole">     -0.00001972       0.00000000      -0.00001990 </v>
    <i name="Tr[quadrupol]">  -1124.83245086 </i>
    <i name="Echarged">      0.00000000 </i>
    <i name="Edipol_quadrupol">      0.00000000 </i>
    <i name="Eion">      0.00000000 </i>
   </dipole>
   <energy>
    <i name="e_fr_energy">     -3.15633953 </i>
    <i name="e_wo_entrp">     -3.15633953 </i>
    <i name="e_0_energy">     -3.15633953 </i>
   </energy>
  </scstep>
  <scstep>
   <time name="diag">    0.04    0.04</time>
   <time name="diis">    0.14    0.14</time>
   <time name="orth">    0.00    0.00</time>
   <time name="total">    1.42    1.43</time>
   <dipole>
    <v name="dipole">     -0.00000933       0.00000000      -0.00000942 </v>
    <i name="Tr[quadrupol]">  -1124.83203676 </i>
    <i name="Echarged">      0.00000000 </i>
    <i name="Edipol_quadrupol">      0.00000000 </i>
    <i name="Eion">      0.00000000 </i>
   </dipole>
   <energy>
    <i name="e_fr_energy">     -3.15634591 </i>
    <i name="e_wo_entrp">     -3.15634591 </i>
    <i name="e_0_energy">     -3.15634591 </i>
   </energy>
  </scstep>
  <scstep>
   <time name="diag">    0.04    0.04</time>
   <time name="diis">    0.14    0.14</time>
   <time name="orth">    0.00    0.00</time>
   <time name="total">    1.42    1.42</time>
   <dipole>
    <v name="dipole">     -0.00000099       0.00000000      -0.00000100 </v>
    <i name="Tr[quadrupol]">  -1124.83156833 </i>
    <i name="Echarged">      0.00000000 </i>
    <i name="Edipol_quadrupol">      0.00000000 </i>
    <i name="Eion">      0.00000000 </i>
   </dipole>
   <energy>
    <i name="e_fr_energy">     -3.15635566 </i>
    <i name="e_wo_entrp">     -3.15635566 </i>
    <i name="e_0_energy">     -3.15635566 </i>
   </energy>
  </scstep>
  <scstep>
   <time name="diag">    0.04    0.04</time>
   <time name="diis">    0.14    0.14</time>
   <time name="orth">    0.00    0.00</time>
   <time name="total">    0.83    0.84</time>
   <dipole>
    <v name="dipole">      0.00000464       0.00000000       0.00000468 </v>
    <i name="Tr[quadrupol]">  -1124.83115341 </i>
    <i name="Echarged">      0.00000000 </i>
    <i name="Edipol_quadrupol">      0.00000000 </i>
    <i name="Eion">      0.00000000 </i>
   </dipole>
   <energy>
    <i name="alphaZ">      0.01586530 </i>
    <i name="ewald">    -27.45274585 </i>
    <i name="hartreedc">   -198.07869002 </i>
    <i name="XCdc">     18.85485699 </i>
    <i name="pawpsdc">    218.56840574 </i>
    <i name="pawaedc">   -219.55050148 </i>
    <i name="eentropy">     -0.00000000 </i>
    <i name="bandstr">    -60.01681780 </i>
    <i name="atom">    264.50327051 </i>
    <i name="e_fr_energy">     -3.15635660 </i>
    <i name="e_wo_entrp">     -3.15635660 </i>
    <i name="e_0_energy">     -3.15635660 </i>
   </energy>
  </scstep>
  <structure>
   <crystal>
    <varray name="basis" >
     <v>      15.00000000      15.00300000       0.00000000 </v>
     <v>       0.00000000      15.02000000      15.00000000 </v>
     <v>      15.01000000       0.00000000      15.15034000 </v>
    </varray>
    <i name="volume">   6791.29705200 </i>
    <varray name="rec_basis" >
     <v>       0.03350731       0.03315272      -0.03319693 </v>
     <v>      -0.03346939       0.03346269       0.03315936 </v>
     <v>       0.03313726      -0.03313064       0.03317481 </v>
    </varray>
   </crystal>
   <varray name="positions" >
    <v>       0.50000062       0.50000096       0.50928890 </v>
   </varray>
  </structure>
  <varray name="forces" >
   <v>       0.00000000      -0.00000000       0.00000000 </v>
  </varray>
  <varray name="stress" >
   <v>      -0.12802571      -0.00020181      -0.00030063 </v>
   <v>      -0.00020181      -0.12832472       0.00016303 </v>
   <v>      -0.00030063       0.00016303      -0.12802337 </v>
  </varray>
  <energy>
   <i name="e_fr_energy">     -3.15635660 </i>
   <i name="e_wo_entrp">     -3.15635660 </i>
   <i name="e_0_energy">     -0.00000000 </i>
  </energy>
  <time name="totalsc">   33.12   33.36</time>
  <eigenvalues>
   <array>
    <dimension dim="1">band</dimension>
    <dimension dim="2">kpoint</dimension>
    <dimension dim="3">spin</dimension>
    <field>eigene</field>
    <field>occ</field>
    <set>
     <set comment="spin 1">
      <set comment="kpoint 1">
       <r>  -19.9437    1.0000 </r>
       <r>   -8.2471    1.0000 </r>
       <r>   -8.2469    1.0000 </r>
       <r>   -8.2469    1.0000 </r>
       <r>   -0.3828    0.0000 </r>
       <r>    0.0879    0.0000 </r>
       <r>    0.3668    0.0000 </r>
       <r>    0.3683    0.0000 </r>
       <r>    0.3689    0.0000 </r>
       <r>    0.4913    0.0000 </r>
      </set>
     </set>
     <set comment="spin 2">
      <set comment="kpoint 1">
       <r>  -15.3322    1.0000 </r>
       <r>   -4.0766    0.0000 </r>
       <r>   -4.0765    0.0000 </r>
       <r>   -4.0765    0.0000 </r>
       <r>   -0.0366    0.0000 </r>
       <r>    0.3714    0.0000 </r>
       <r>    0.4791    0.0000 </r>
       <r>    0.4812    0.0000 </r>
       <r>    0.4831    0.0000 </r>
       <r>    0.4930    0.0000 </r>
      </set>
     </set>
    </set>
   </array>
  </eigenvalues>
  <separator name="orbital magnetization" >
   <v name="MAGDIPOLOUT">      0.00000000      0.00000000      0.00000000</v>
  </separator>
  <dos>
   <i name="efermi">     -8.14235243 </i>
   <total>
    <array>
     <dimension dim="1">gridpoints</dimension>
     <dimension dim="2">spin</dimension>
     <field>energy</field>
     <field>total</field>
     <field>integrated</field>
     <set>
      <set comment="spin 1">
       <r>   -20.9655     0.0000     0.0000 </r>
       <r>   -20.8906     0.0000     0.0000 </r>
       <r>   -20.8156     0.0000     0.0000 </r>
       <r>   -20.7407     0.0000     0.0000 </r>
       <r>   -20.6658     0.0000     0.0000 </r>
       <r>   -20.5908     0.0000     0.0000 </r>
       <r>   -20.5159     0.0000     0.0000 </r>
       <r>   -20.4410     0.0000     0.0000 </r>
       <r>   -20.3660     0.0000     0.0000 </r>
       <r>   -20.2911     0.0000     0.0000 </r>
       <r>   -20.2162     0.0000     0.0000 </r>
       <r>   -20.1412     0.0000     0.0000 </r>
       <r>   -20.0663     0.0000     0.0000 </r>
       <r>   -19.9913     0.0000     0.0000 </r>
       <r>   -19.9164    13.3442     0.9999 </r>
       <r>   -19.8415     0.0000     1.0000 </r>
       <r>   -19.7665     0.0000     1.0000 </r>
       <r>   -19.6916     0.0000     1.0000 </r>
       <r>   -19.6167     0.0000     1.0000 </r>
       <r>   -19.5417     0.0000     1.0000 </r>
       <r>   -19.4668     0.0000     1.0000 </r>
       <r>   -19.3919     0.0000     1.0000 </r>
       <r>   -19.3169     0.0000     1.0000 </r>
       <r>   -19.2420     0.0000     1.0000 </r>
       <r>   -19.1671     0.0000     1.0000 </r>
       <r>   -19.0921     0.0000     1.0000 </r>
       <r>   -19.0172     0.0000     1.0000 </r>
       <r>   -18.9423     0.0000     1.0000 </r>
       <r>   -18.8673     0.0000     1.0000 </r>
       <r>   -18.7924     0.0000     1.0000 </r>
       <r>   -18.7175     0.0000     1.0000 </r>
       <r>   -18.6425     0.0000     1.0000 </r>
       <r>   -18.5676     0.0000     1.0000 </r>
       <r>   -18.4927     0.0000     1.0000 </r>
       <r>   -18.4177     0.0000     1.0000 </r>
       <r>   -18.3428     0.0000     1.0000 </r>
       <r>   -18.2679     0.0000     1.0000 </r>
       <r>   -18.1929     0.0000     1.0000 </r>
       <r>   -18.1180     0.0000     1.0000 </r>
       <r>   -18.0431     0.0000     1.0000 </r>
       <r>   -17.9681     0.0000     1.0000 </r>
       <r>   -17.8932     0.0000     1.0000 </r>
       <r>   -17.8183     0.0000     1.0000 </r>
       <r>   -17.7433     0.0000     1.0000 </r>
       <r>   -17.6684     0.0000     1.0000 </r>
       <r>   -17.5934     0.0000     1.0000 </r>
       <r>   -17.5185     0.0000     1.0000 </r>
       <r>   -17.4436     0.0000     1.0000 </r>
       <r>   -17.3686     0.0000     1.0000 </r>
       <r>   -17.2937     0.0000     1.0000 </r>
       <r>   -17.2188     0.0000     1.0000 </r>
       <r>   -17.1438     0.0000     1.0000 </r>
       <r>   -17.0689     0.0000     1.0000 </r>
       <r>   -16.9940     0.0000     1.0000 </r>
       <r>   -16.9190     0.0000     1.0000 </r>
       <r>   -16.8441     0.0000     1.0000 </r>
       <r>   -16.7692     0.0000     1.0000 </r>
       <r>   -16.6942     0.0000     1.0000 </r>
       <r>   -16.6193     0.0000     1.0000 </r>
       <r>   -16.5444     0.0000     1.0000 </r>
       <r>   -16.4694     0.0000     1.0000 </r>
       <r>   -16.3945     0.0000     1.0000 </r>
       <r>   -16.3196     0.0000     1.0000 </r>
       <r>   -16.2446     0.0000     1.0000 </r>
       <r>   -16.1697     0.0000     1.0000 </r>
       <r>   -16.0948     0.0000     1.0000 </r>
       <r>   -16.0198     0.0000     1.0000 </r>
       <r>   -15.9449     0.0000     1.0000 </r>
       <r>   -15.8700     0.0000     1.0000 </r>
       <r>   -15.7950     0.0000     1.0000 </r>
       <r>   -15.7201     0.0000     1.0000 </r>
       <r>   -15.6452     0.0000     1.0000 </r>
       <r>   -15.5702     0.0000     1.0000 </r>
       <r>   -15.4953     0.0000     1.0000 </r>
       <r>   -15.4204     0.0000     1.0000 </r>
       <r>   -15.3454     0.0000     1.0000 </r>
       <r>   -15.2705     0.0000     1.0000 </r>
       <r>   -15.1955     0.0000     1.0000 </r>
       <r>   -15.1206     0.0000     1.0000 </r>
       <r>   -15.0457     0.0000     1.0000 </r>
       <r>   -14.9707     0.0000     1.0000 </r>
       <r>   -14.8958     0.0000     1.0000 </r>
       <r>   -14.8209     0.0000     1.0000 </r>
       <r>   -14.7459     0.0000     1.0000 </r>
       <r>   -14.6710     0.0000     1.0000 </r>
       <r>   -14.5961     0.0000     1.0000 </r>
       <r>   -14.5211     0.0000     1.0000 </r>
       <r>   -14.4462     0.0000     1.0000 </r>
       <r>   -14.3713     0.0000     1.0000 </r>
       <r>   -14.2963     0.0000     1.0000 </r>
       <r>   -14.2214     0.0000     1.0000 </r>
       <r>   -14.1465     0.0000     1.0000 </r>
       <r>   -14.0715     0.0000     1.0000 </r>
       <r>   -13.9966     0.0000     1.0000 </r>
       <r>   -13.9217     0.0000     1.0000 </r>
       <r>   -13.8467     0.0000     1.0000 </r>
       <r>   -13.7718     0.0000     1.0000 </r>
       <r>   -13.6969     0.0000     1.0000 </r>
       <r>   -13.6219     0.0000     1.0000 </r>
       <r>   -13.5470     0.0000     1.0000 </r>
       <r>   -13.4721     0.0000     1.0000 </r>
       <r>   -13.3971     0.0000     1.0000 </r>
       <r>   -13.3222     0.0000     1.0000 </r>
       <r>   -13.2473     0.0000     1.0000 </r>
       <r>   -13.1723     0.0000     1.0000 </r>
       <r>   -13.0974     0.0000     1.0000 </r>
       <r>   -13.0225     0.0000     1.0000 </r>
       <r>   -12.9475     0.0000     1.0000 </r>
       <r>   -12.8726     0.0000     1.0000 </r>
       <r>   -12.7977     0.0000     1.0000 </r>
       <r>   -12.7227     0.0000     1.0000 </r>
       <r>   -12.6478     0.0000     1.0000 </r>
       <r>   -12.5728     0.0000     1.0000 </r>
       <r>   -12.4979     0.0000     1.0000 </r>
       <r>   -12.4230     0.0000     1.0000 </r>
       <r>   -12.3480     0.0000     1.0000 </r>
       <r>   -12.2731     0.0000     1.0000 </r>
       <r>   -12.1982     0.0000     1.0000 </r>
       <r>   -12.1232     0.0000     1.0000 </r>
       <r>   -12.0483     0.0000     1.0000 </r>
       <r>   -11.9734     0.0000     1.0000 </r>
       <r>   -11.8984     0.0000     1.0000 </r>
       <r>   -11.8235     0.0000     1.0000 </r>
       <r>   -11.7486     0.0000     1.0000 </r>
       <r>   -11.6736     0.0000     1.0000 </r>
       <r>   -11.5987     0.0000     1.0000 </r>
       <r>   -11.5238     0.0000     1.0000 </r>
       <r>   -11.4488     0.0000     1.0000 </r>
       <r>   -11.3739     0.0000     1.0000 </r>
       <r>   -11.2990     0.0000     1.0000 </r>
       <r>   -11.2240     0.0000     1.0000 </r>
       <r>   -11.1491     0.0000     1.0000 </r>
       <r>   -11.0742     0.0000     1.0000 </r>
       <r>   -10.9992     0.0000     1.0000 </r>
       <r>   -10.9243     0.0000     1.0000 </r>
       <r>   -10.8494     0.0000     1.0000 </r>
       <r>   -10.7744     0.0000     1.0000 </r>
       <r>   -10.6995     0.0000     1.0000 </r>
       <r>   -10.6246     0.0000     1.0000 </r>
       <r>   -10.5496     0.0000     1.0000 </r>
       <r>   -10.4747     0.0000     1.0000 </r>
       <r>   -10.3998     0.0000     1.0000 </r>
       <r>   -10.3248     0.0000     1.0000 </r>
       <r>   -10.2499     0.0000     1.0000 </r>
       <r>   -10.1749     0.0000     1.0000 </r>
       <r>   -10.1000     0.0000     1.0000 </r>
       <r>   -10.0251     0.0000     1.0000 </r>
       <r>    -9.9501     0.0000     1.0000 </r>
       <r>    -9.8752     0.0000     1.0000 </r>
       <r>    -9.8003     0.0000     1.0000 </r>
       <r>    -9.7253     0.0000     1.0000 </r>
       <r>    -9.6504     0.0000     1.0000 </r>
       <r>    -9.5755     0.0000     1.0000 </r>
       <r>    -9.5005     0.0000     1.0000 </r>
       <r>    -9.4256     0.0000     1.0000 </r>
       <r>    -9.3507     0.0000     1.0000 </r>
       <r>    -9.2757     0.0000     1.0000 </r>
       <r>    -9.2008     0.0000     1.0000 </r>
       <r>    -9.1259     0.0000     1.0000 </r>
       <r>    -9.0509     0.0000     1.0000 </r>
       <r>    -8.9760     0.0000     1.0000 </r>
       <r>    -8.9011     0.0000     1.0000 </r>
       <r>    -8.8261     0.0000     1.0000 </r>
       <r>    -8.7512     0.0000     1.0000 </r>
       <r>    -8.6763     0.0000     1.0000 </r>
       <r>    -8.6013     0.0000     1.0000 </r>
       <r>    -8.5264     0.0000     1.0000 </r>
       <r>    -8.4515     0.0000     1.0000 </r>
       <r>    -8.3765     0.0000     1.0000 </r>
       <r>    -8.3016     0.0000     1.0000 </r>
       <r>    -8.2267    39.9545     3.9940 </r>
       <r>    -8.1517     0.0000     4.0000 </r>
       <r>    -8.0768     0.0000     4.0000 </r>
       <r>    -8.0019     0.0000     4.0000 </r>
       <r>    -7.9269     0.0000     4.0000 </r>
       <r>    -7.8520     0.0000     4.0000 </r>
       <r>    -7.7770     0.0000     4.0000 </r>
       <r>    -7.7021     0.0000     4.0000 </r>
       <r>    -7.6272     0.0000     4.0000 </r>
       <r>    -7.5522     0.0000     4.0000 </r>
       <r>    -7.4773     0.0000     4.0000 </r>
       <r>    -7.4024     0.0000     4.0000 </r>
       <r>    -7.3274     0.0000     4.0000 </r>
       <r>    -7.2525     0.0000     4.0000 </r>
       <r>    -7.1776     0.0000     4.0000 </r>
       <r>    -7.1026     0.0000     4.0000 </r>
       <r>    -7.0277     0.0000     4.0000 </r>
       <r>    -6.9528     0.0000     4.0000 </r>
       <r>    -6.8778     0.0000     4.0000 </r>
       <r>    -6.8029     0.0000     4.0000 </r>
       <r>    -6.7280     0.0000     4.0000 </r>
       <r>    -6.6530     0.0000     4.0000 </r>
       <r>    -6.5781     0.0000     4.0000 </r>
       <r>    -6.5032     0.0000     4.0000 </r>
       <r>    -6.4282     0.0000     4.0000 </r>
       <r>    -6.3533     0.0000     4.0000 </r>
       <r>    -6.2784     0.0000     4.0000 </r>
       <r>    -6.2034     0.0000     4.0000 </r>
       <r>    -6.1285     0.0000     4.0000 </r>
       <r>    -6.0536     0.0000     4.0000 </r>
       <r>    -5.9786     0.0000     4.0000 </r>
       <r>    -5.9037     0.0000     4.0000 </r>
       <r>    -5.8288     0.0000     4.0000 </r>
       <r>    -5.7538     0.0000     4.0000 </r>
       <r>    -5.6789     0.0000     4.0000 </r>
       <r>    -5.6040     0.0000     4.0000 </r>
       <r>    -5.5290     0.0000     4.0000 </r>
       <r>    -5.4541     0.0000     4.0000 </r>
       <r>    -5.3791     0.0000     4.0000 </r>
       <r>    -5.3042     0.0000     4.0000 </r>
       <r>    -5.2293     0.0000     4.0000 </r>
       <r>    -5.1543     0.0000     4.0000 </r>
       <r>    -5.0794     0.0000     4.0000 </r>
       <r>    -5.0045     0.0000     4.0000 </r>
       <r>    -4.9295     0.0000     4.0000 </r>
       <r>    -4.8546     0.0000     4.0000 </r>
       <r>    -4.7797     0.0000     4.0000 </r>
       <r>    -4.7047     0.0000     4.0000 </r>
       <r>    -4.6298     0.0000     4.0000 </r>
       <r>    -4.5549     0.0000     4.0000 </r>
       <r>    -4.4799     0.0000     4.0000 </r>
       <r>    -4.4050     0.0000     4.0000 </r>
       <r>    -4.3301     0.0000     4.0000 </r>
       <r>    -4.2551     0.0000     4.0000 </r>
       <r>    -4.1802     0.0000     4.0000 </r>
       <r>    -4.1053     0.0000     4.0000 </r>
       <r>    -4.0303     0.0000     4.0000 </r>
       <r>    -3.9554     0.0000     4.0000 </r>
       <r>    -3.8805     0.0000     4.0000 </r>
       <r>    -3.8055     0.0000     4.0000 </r>
       <r>    -3.7306     0.0000     4.0000 </r>
       <r>    -3.6557     0.0000     4.0000 </r>
       <r>    -3.5807     0.0000     4.0000 </r>
       <r>    -3.5058     0.0000     4.0000 </r>
       <r>    -3.4309     0.0000     4.0000 </r>
       <r>    -3.3559     0.0000     4.0000 </r>
       <r>    -3.2810     0.0000     4.0000 </r>
       <r>    -3.2061     0.0000     4.0000 </r>
       <r>    -3.1311     0.0000     4.0000 </r>
       <r>    -3.0562     0.0000     4.0000 </r>
       <r>    -2.9812     0.0000     4.0000 </r>
       <r>    -2.9063     0.0000     4.0000 </r>
       <r>    -2.8314     0.0000     4.0000 </r>
       <r>    -2.7564     0.0000     4.0000 </r>
       <r>    -2.6815     0.0000     4.0000 </r>
       <r>    -2.6066     0.0000     4.0000 </r>
       <r>    -2.5316     0.0000     4.0000 </r>
       <r>    -2.4567     0.0000     4.0000 </r>
       <r>    -2.3818     0.0000     4.0000 </r>
       <r>    -2.3068     0.0000     4.0000 </r>
       <r>    -2.2319     0.0000     4.0000 </r>
       <r>    -2.1570     0.0000     4.0000 </r>
       <r>    -2.0820     0.0000     4.0000 </r>
       <r>    -2.0071     0.0000     4.0000 </r>
       <r>    -1.9322     0.0000     4.0000 </r>
       <r>    -1.8572     0.0000     4.0000 </r>
       <r>    -1.7823     0.0000     4.0000 </r>
       <r>    -1.7074     0.0000     4.0000 </r>
       <r>    -1.6324     0.0000     4.0000 </r>
       <r>    -1.5575     0.0000     4.0000 </r>
       <r>    -1.4826     0.0000     4.0000 </r>
       <r>    -1.4076     0.0000     4.0000 </r>
       <r>    -1.3327     0.0000     4.0000 </r>
       <r>    -1.2578     0.0000     4.0000 </r>
       <r>    -1.1828     0.0000     4.0000 </r>
       <r>    -1.1079     0.0000     4.0000 </r>
       <r>    -1.0330     0.0000     4.0000 </r>
       <r>    -0.9580     0.0000     4.0000 </r>
       <r>    -0.8831     0.0000     4.0000 </r>
       <r>    -0.8082     0.0000     4.0000 </r>
       <r>    -0.7332     0.0000     4.0000 </r>
       <r>    -0.6583     0.0000     4.0000 </r>
       <r>    -0.5833     0.0000     4.0000 </r>
       <r>    -0.5084     0.0000     4.0000 </r>
       <r>    -0.4335     0.0000     4.0000 </r>
       <r>    -0.3585    13.3409     4.9997 </r>
       <r>    -0.2836     0.0000     5.0000 </r>
       <r>    -0.2087     0.0000     5.0000 </r>
       <r>    -0.1337     0.0000     5.0000 </r>
       <r>    -0.0588     0.0000     5.0000 </r>
       <r>     0.0161     0.0000     5.0000 </r>
       <r>     0.0911     9.0087     5.6751 </r>
       <r>     0.1660     4.3363     6.0000 </r>
       <r>     0.2409     0.0000     6.0000 </r>
       <r>     0.3159     0.0000     6.0000 </r>
       <r>     0.3908    40.0078     8.9980 </r>
       <r>     0.4657     0.0020     9.0002 </r>
       <r>     0.5407    13.3430    10.0000 </r>
       <r>     0.6156     0.0000    10.0000 </r>
       <r>     0.6905     0.0000    10.0000 </r>
       <r>     0.7655     0.0000    10.0000 </r>
       <r>     0.8404     0.0000    10.0000 </r>
       <r>     0.9153     0.0000    10.0000 </r>
       <r>     0.9903     0.0000    10.0000 </r>
       <r>     1.0652     0.0000    10.0000 </r>
       <r>     1.1401     0.0000    10.0000 </r>
       <r>     1.2151     0.0000    10.0000 </r>
       <r>     1.2900     0.0000    10.0000 </r>
       <r>     1.3649     0.0000    10.0000 </r>
       <r>     1.4399     0.0000    10.0000 </r>
       <r>     1.5148     0.0000    10.0000 </r>
      </set>
      <set comment="spin 2">
       <r>   -20.9655     0.0000     0.0000 </r>
       <r>   -20.8906     0.0000     0.0000 </r>
       <r>   -20.8156     0.0000     0.0000 </r>
       <r>   -20.7407     0.0000     0.0000 </r>
       <r>   -20.6658     0.0000     0.0000 </r>
       <r>   -20.5908     0.0000     0.0000 </r>
       <r>   -20.5159     0.0000     0.0000 </r>
       <r>   -20.4410     0.0000     0.0000 </r>
       <r>   -20.3660     0.0000     0.0000 </r>
       <r>   -20.2911     0.0000     0.0000 </r>
       <r>   -20.2162     0.0000     0.0000 </r>
       <r>   -20.1412     0.0000     0.0000 </r>
       <r>   -20.0663     0.0000     0.0000 </r>
       <r>   -19.9913     0.0000     0.0000 </r>
       <r>   -19.9164     0.0000     0.0000 </r>
       <r>   -19.8415     0.0000     0.0000 </r>
       <r>   -19.7665     0.0000     0.0000 </r>
       <r>   -19.6916     0.0000     0.0000 </r>
       <r>   -19.6167     0.0000     0.0000 </r>
       <r>   -19.5417     0.0000     0.0000 </r>
       <r>   -19.4668     0.0000     0.0000 </r>
       <r>   -19.3919     0.0000     0.0000 </r>
       <r>   -19.3169     0.0000     0.0000 </r>
       <r>   -19.2420     0.0000     0.0000 </r>
       <r>   -19.1671     0.0000     0.0000 </r>
       <r>   -19.0921     0.0000     0.0000 </r>
       <r>   -19.0172     0.0000     0.0000 </r>
       <r>   -18.9423     0.0000     0.0000 </r>
       <r>   -18.8673     0.0000     0.0000 </r>
       <r>   -18.7924     0.0000     0.0000 </r>
       <r>   -18.7175     0.0000     0.0000 </r>
       <r>   -18.6425     0.0000     0.0000 </r>
       <r>   -18.5676     0.0000     0.0000 </r>
       <r>   -18.4927     0.0000     0.0000 </r>
       <r>   -18.4177     0.0000     0.0000 </r>
       <r>   -18.3428     0.0000     0.0000 </r>
       <r>   -18.2679     0.0000     0.0000 </r>
       <r>   -18.1929     0.0000     0.0000 </r>
       <r>   -18.1180     0.0000     0.0000 </r>
       <r>   -18.0431     0.0000     0.0000 </r>
       <r>   -17.9681     0.0000     0.0000 </r>
       <r>   -17.8932     0.0000     0.0000 </r>
       <r>   -17.8183     0.0000     0.0000 </r>
       <r>   -17.7433     0.0000     0.0000 </r>
       <r>   -17.6684     0.0000     0.0000 </r>
       <r>   -17.5934     0.0000     0.0000 </r>
       <r>   -17.5185     0.0000     0.0000 </r>
       <r>   -17.4436     0.0000     0.0000 </r>
       <r>   -17.3686     0.0000     0.0000 </r>
       <r>   -17.2937     0.0000     0.0000 </r>
       <r>   -17.2188     0.0000     0.0000 </r>
       <r>   -17.1438     0.0000     0.0000 </r>
       <r>   -17.0689     0.0000     0.0000 </r>
       <r>   -16.9940     0.0000     0.0000 </r>
       <r>   -16.9190     0.0000     0.0000 </r>
       <r>   -16.8441     0.0000     0.0000 </r>
       <r>   -16.7692     0.0000     0.0000 </r>
       <r>   -16.6942     0.0000     0.0000 </r>
       <r>   -16.6193     0.0000     0.0000 </r>
       <r>   -16.5444     0.0000     0.0000 </r>
       <r>   -16.4694     0.0000     0.0000 </r>
       <r>   -16.3945     0.0000     0.0000 </r>
       <r>   -16.3196     0.0000     0.0000 </r>
       <r>   -16.2446     0.0000     0.0000 </r>
       <r>   -16.1697     0.0000     0.0000 </r>
       <r>   -16.0948     0.0000     0.0000 </r>
       <r>   -16.0198     0.0000     0.0000 </r>
       <r>   -15.9449     0.0000     0.0000 </r>
       <r>   -15.8700     0.0000     0.0000 </r>
       <r>   -15.7950     0.0000     0.0000 </r>
       <r>   -15.7201     0.0000     0.0000 </r>
       <r>   -15.6452     0.0000     0.0000 </r>
       <r>   -15.5702     0.0000     0.0000 </r>
       <r>   -15.4953     0.0000     0.0000 </r>
       <r>   -15.4204     0.0000     0.0000 </r>
       <r>   -15.3454     0.4077     0.0306 </r>
       <r>   -15.2705    12.9373     1.0000 </r>
       <r>   -15.1955     0.0000     1.0000 </r>
       <r>   -15.1206     0.0000     1.0000 </r>
       <r>   -15.0457     0.0000     1.0000 </r>
       <r>   -14.9707     0.0000     1.0000 </r>
       <r>   -14.8958     0.0000     1.0000 </r>
       <r>   -14.8209     0.0000     1.0000 </r>
       <r>   -14.7459     0.0000     1.0000 </r>
       <r>   -14.6710     0.0000     1.0000 </r>
       <r>   -14.5961     0.0000     1.0000 </r>
       <r>   -14.5211     0.0000     1.0000 </r>
       <r>   -14.4462     0.0000     1.0000 </r>
       <r>   -14.3713     0.0000     1.0000 </r>
       <r>   -14.2963     0.0000     1.0000 </r>
       <r>   -14.2214     0.0000     1.0000 </r>
       <r>   -14.1465     0.0000     1.0000 </r>
       <r>   -14.0715     0.0000     1.0000 </r>
       <r>   -13.9966     0.0000     1.0000 </r>
       <r>   -13.9217     0.0000     1.0000 </r>
       <r>   -13.8467     0.0000     1.0000 </r>
       <r>   -13.7718     0.0000     1.0000 </r>
       <r>   -13.6969     0.0000     1.0000 </r>
       <r>   -13.6219     0.0000     1.0000 </r>
       <r>   -13.5470     0.0000     1.0000 </r>
       <r>   -13.4721     0.0000     1.0000 </r>
       <r>   -13.3971     0.0000     1.0000 </r>
       <r>   -13.3222     0.0000     1.0000 </r>
       <r>   -13.2473     0.0000     1.0000 </r>
       <r>   -13.1723     0.0000     1.0000 </r>
       <r>   -13.0974     0.0000     1.0000 </r>
       <r>   -13.0225     0.0000     1.0000 </r>
       <r>   -12.9475     0.0000     1.0000 </r>
       <r>   -12.8726     0.0000     1.0000 </r>
       <r>   -12.7977     0.0000     1.0000 </r>
       <r>   -12.7227     0.0000     1.0000 </r>
       <r>   -12.6478     0.0000     1.0000 </r>
       <r>   -12.5728     0.0000     1.0000 </r>
       <r>   -12.4979     0.0000     1.0000 </r>
       <r>   -12.4230     0.0000     1.0000 </r>
       <r>   -12.3480     0.0000     1.0000 </r>
       <r>   -12.2731     0.0000     1.0000 </r>
       <r>   -12.1982     0.0000     1.0000 </r>
       <r>   -12.1232     0.0000     1.0000 </r>
       <r>   -12.0483     0.0000     1.0000 </r>
       <r>   -11.9734     0.0000     1.0000 </r>
       <r>   -11.8984     0.0000     1.0000 </r>
       <r>   -11.8235     0.0000     1.0000 </r>
       <r>   -11.7486     0.0000     1.0000 </r>
       <r>   -11.6736     0.0000     1.0000 </r>
       <r>   -11.5987     0.0000     1.0000 </r>
       <r>   -11.5238     0.0000     1.0000 </r>
       <r>   -11.4488     0.0000     1.0000 </r>
       <r>   -11.3739     0.0000     1.0000 </r>
       <r>   -11.2990     0.0000     1.0000 </r>
       <r>   -11.2240     0.0000     1.0000 </r>
       <r>   -11.1491     0.0000     1.0000 </r>
       <r>   -11.0742     0.0000     1.0000 </r>
       <r>   -10.9992     0.0000     1.0000 </r>
       <r>   -10.9243     0.0000     1.0000 </r>
       <r>   -10.8494     0.0000     1.0000 </r>
       <r>   -10.7744     0.0000     1.0000 </r>
       <r>   -10.6995     0.0000     1.0000 </r>
       <r>   -10.6246     0.0000     1.0000 </r>
       <r>   -10.5496     0.0000     1.0000 </r>
       <r>   -10.4747     0.0000     1.0000 </r>
       <r>   -10.3998     0.0000     1.0000 </r>
       <r>   -10.3248     0.0000     1.0000 </r>
       <r>   -10.2499     0.0000     1.0000 </r>
       <r>   -10.1749     0.0000     1.0000 </r>
       <r>   -10.1000     0.0000     1.0000 </r>
       <r>   -10.0251     0.0000     1.0000 </r>
       <r>    -9.9501     0.0000     1.0000 </r>
       <r>    -9.8752     0.0000     1.0000 </r>
       <r>    -9.8003     0.0000     1.0000 </r>
       <r>    -9.7253     0.0000     1.0000 </r>
       <r>    -9.6504     0.0000     1.0000 </r>
       <r>    -9.5755     0.0000     1.0000 </r>
       <r>    -9.5005     0.0000     1.0000 </r>
       <r>    -9.4256     0.0000     1.0000 </r>
       <r>    -9.3507     0.0000     1.0000 </r>
       <r>    -9.2757     0.0000     1.0000 </r>
       <r>    -9.2008     0.0000     1.0000 </r>
       <r>    -9.1259     0.0000     1.0000 </r>
       <r>    -9.0509     0.0000     1.0000 </r>
       <r>    -8.9760     0.0000     1.0000 </r>
       <r>    -8.9011     0.0000     1.0000 </r>
       <r>    -8.8261     0.0000     1.0000 </r>
       <r>    -8.7512     0.0000     1.0000 </r>
       <r>    -8.6763     0.0000     1.0000 </r>
       <r>    -8.6013     0.0000     1.0000 </r>
       <r>    -8.5264     0.0000     1.0000 </r>
       <r>    -8.4515     0.0000     1.0000 </r>
       <r>    -8.3765     0.0000     1.0000 </r>
       <r>    -8.3016     0.0000     1.0000 </r>
       <r>    -8.2267     0.0000     1.0000 </r>
       <r>    -8.1517     0.0000     1.0000 </r>
       <r>    -8.0768     0.0000     1.0000 </r>
       <r>    -8.0019     0.0000     1.0000 </r>
       <r>    -7.9269     0.0000     1.0000 </r>
       <r>    -7.8520     0.0000     1.0000 </r>
       <r>    -7.7770     0.0000     1.0000 </r>
       <r>    -7.7021     0.0000     1.0000 </r>
       <r>    -7.6272     0.0000     1.0000 </r>
       <r>    -7.5522     0.0000     1.0000 </r>
       <r>    -7.4773     0.0000     1.0000 </r>
       <r>    -7.4024     0.0000     1.0000 </r>
       <r>    -7.3274     0.0000     1.0000 </r>
       <r>    -7.2525     0.0000     1.0000 </r>
       <r>    -7.1776     0.0000     1.0000 </r>
       <r>    -7.1026     0.0000     1.0000 </r>
       <r>    -7.0277     0.0000     1.0000 </r>
       <r>    -6.9528     0.0000     1.0000 </r>
       <r>    -6.8778     0.0000     1.0000 </r>
       <r>    -6.8029     0.0000     1.0000 </r>
       <r>    -6.7280     0.0000     1.0000 </r>
       <r>    -6.6530     0.0000     1.0000 </r>
       <r>    -6.5781     0.0000     1.0000 </r>
       <r>    -6.5032     0.0000     1.0000 </r>
       <r>    -6.4282     0.0000     1.0000 </r>
       <r>    -6.3533     0.0000     1.0000 </r>
       <r>    -6.2784     0.0000     1.0000 </r>
       <r>    -6.2034     0.0000     1.0000 </r>
       <r>    -6.1285     0.0000     1.0000 </r>
       <r>    -6.0536     0.0000     1.0000 </r>
       <r>    -5.9786     0.0000     1.0000 </r>
       <r>    -5.9037     0.0000     1.0000 </r>
       <r>    -5.8288     0.0000     1.0000 </r>
       <r>    -5.7538     0.0000     1.0000 </r>
       <r>    -5.6789     0.0000     1.0000 </r>
       <r>    -5.6040     0.0000     1.0000 </r>
       <r>    -5.5290     0.0000     1.0000 </r>
       <r>    -5.4541     0.0000     1.0000 </r>
       <r>    -5.3791     0.0000     1.0000 </r>
       <r>    -5.3042     0.0000     1.0000 </r>
       <r>    -5.2293     0.0000     1.0000 </r>
       <r>    -5.1543     0.0000     1.0000 </r>
       <r>    -5.0794     0.0000     1.0000 </r>
       <r>    -5.0045     0.0000     1.0000 </r>
       <r>    -4.9295     0.0000     1.0000 </r>
       <r>    -4.8546     0.0000     1.0000 </r>
       <r>    -4.7797     0.0000     1.0000 </r>
       <r>    -4.7047     0.0000     1.0000 </r>
       <r>    -4.6298     0.0000     1.0000 </r>
       <r>    -4.5549     0.0000     1.0000 </r>
       <r>    -4.4799     0.0000     1.0000 </r>
       <r>    -4.4050     0.0000     1.0000 </r>
       <r>    -4.3301     0.0000     1.0000 </r>
       <r>    -4.2551     0.0000     1.0000 </r>
       <r>    -4.1802     0.0000     1.0000 </r>
       <r>    -4.1053     0.0010     1.0001 </r>
       <r>    -4.0303    40.0340     4.0000 </r>
       <r>    -3.9554     0.0000     4.0000 </r>
       <r>    -3.8805     0.0000     4.0000 </r>
       <r>    -3.8055     0.0000     4.0000 </r>
       <r>    -3.7306     0.0000     4.0000 </r>
       <r>    -3.6557     0.0000     4.0000 </r>
       <r>    -3.5807     0.0000     4.0000 </r>
       <r>    -3.5058     0.0000     4.0000 </r>
       <r>    -3.4309     0.0000     4.0000 </r>
       <r>    -3.3559     0.0000     4.0000 </r>
       <r>    -3.2810     0.0000     4.0000 </r>
       <r>    -3.2061     0.0000     4.0000 </r>
       <r>    -3.1311     0.0000     4.0000 </r>
       <r>    -3.0562     0.0000     4.0000 </r>
       <r>    -2.9812     0.0000     4.0000 </r>
       <r>    -2.9063     0.0000     4.0000 </r>
       <r>    -2.8314     0.0000     4.0000 </r>
       <r>    -2.7564     0.0000     4.0000 </r>
       <r>    -2.6815     0.0000     4.0000 </r>
       <r>    -2.6066     0.0000     4.0000 </r>
       <r>    -2.5316     0.0000     4.0000 </r>
       <r>    -2.4567     0.0000     4.0000 </r>
       <r>    -2.3818     0.0000     4.0000 </r>
       <r>    -2.3068     0.0000     4.0000 </r>
       <r>    -2.2319     0.0000     4.0000 </r>
       <r>    -2.1570     0.0000     4.0000 </r>
       <r>    -2.0820     0.0000     4.0000 </r>
       <r>    -2.0071     0.0000     4.0000 </r>
       <r>    -1.9322     0.0000     4.0000 </r>
       <r>    -1.8572     0.0000     4.0000 </r>
       <r>    -1.7823     0.0000     4.0000 </r>
       <r>    -1.7074     0.0000     4.0000 </r>
       <r>    -1.6324     0.0000     4.0000 </r>
       <r>    -1.5575     0.0000     4.0000 </r>
       <r>    -1.4826     0.0000     4.0000 </r>
       <r>    -1.4076     0.0000     4.0000 </r>
       <r>    -1.3327     0.0000     4.0000 </r>
       <r>    -1.2578     0.0000     4.0000 </r>
       <r>    -1.1828     0.0000     4.0000 </r>
       <r>    -1.1079     0.0000     4.0000 </r>
       <r>    -1.0330     0.0000     4.0000 </r>
       <r>    -0.9580     0.0000     4.0000 </r>
       <r>    -0.8831     0.0000     4.0000 </r>
       <r>    -0.8082     0.0000     4.0000 </r>
       <r>    -0.7332     0.0000     4.0000 </r>
       <r>    -0.6583     0.0000     4.0000 </r>
       <r>    -0.5833     0.0000     4.0000 </r>
       <r>    -0.5084     0.0000     4.0000 </r>
       <r>    -0.4335     0.0000     4.0000 </r>
       <r>    -0.3585     0.0000     4.0000 </r>
       <r>    -0.2836     0.0000     4.0000 </r>
       <r>    -0.2087     0.0000     4.0000 </r>
       <r>    -0.1337     0.0000     4.0000 </r>
       <r>    -0.0588     0.0115     4.0009 </r>
       <r>     0.0161    13.3335     5.0000 </r>
       <r>     0.0911     0.0000     5.0000 </r>
       <r>     0.1660     0.0000     5.0000 </r>
       <r>     0.2409     0.0000     5.0000 </r>
       <r>     0.3159     0.0000     5.0000 </r>
       <r>     0.3908    13.3041     5.9969 </r>
       <r>     0.4657     0.6840     6.0513 </r>
       <r>     0.5407    52.6961    10.0000 </r>
       <r>     0.6156     0.0000    10.0000 </r>
       <r>     0.6905     0.0000    10.0000 </r>
       <r>     0.7655     0.0000    10.0000 </r>
       <r>     0.8404     0.0000    10.0000 </r>
       <r>     0.9153     0.0000    10.0000 </r>
       <r>     0.9903     0.0000    10.0000 </r>
       <r>     1.0652     0.0000    10.0000 </r>
       <r>     1.1401     0.0000    10.0000 </r>
       <r>     1.2151     0.0000    10.0000 </r>
       <r>     1.2900     0.0000    10.0000 </r>
       <r>     1.3649     0.0000    10.0000 </r>
       <r>     1.4399     0.0000    10.0000 </r>
       <r>     1.5148     0.0000    10.0000 </r>
      </set>
     </set>
    </array>
   </total>
  </dos>
 </calculation>
 <structure name="finalpos" >
  <crystal>
   <varray name="basis" >
    <v>      15.00000000      15.00300000       0.00000000 </v>
    <v>       0.00000000      15.02000000      15.00000000 </v>
    <v>      15.01000000       0.00000000      15.15034000 </v>
   </varray>
   <i name="volume">   6791.29705200 </i>
   <varray name="rec_basis" >
    <v>       0.03350731       0.03315272      -0.03319693 </v>
    <v>      -0.03346939       0.03346269       0.03315936 </v>
    <v>       0.03313726      -0.03313064       0.03317481 </v>
   </varray>
  </crystal>
  <varray name="positions" >
   <v>       0.50000062       0.50000096       0.50928890 </v>
  </varray>
 </structure>
</modeling>
