 Entering Link 1 = C:\G03W\l1.exe PID=      3020.
  
 Copyright (c) 1988,1990,1992,1993,1995,1998,2003, Gaussian, Inc.
                  All Rights Reserved.
  
 This is the Gaussian(R) 03 program.  It is based on the
 the Gaussian(R) 98 system (copyright 1998, Gaussian, Inc.),
 the Gaussian(R) 94 system (copyright 1995, Gaussian, Inc.),
 the Gaussian 92(TM) system (copyright 1992, Gaussian, Inc.),
 the Gaussian 90(TM) system (copyright 1990, Gaussian, Inc.),
 the Gaussian 88(TM) system (copyright 1988, Gaussian, Inc.),
 the Gaussian 86(TM) system (copyright 1986, Carnegie Mellon
 University), and the Gaussian 82(TM) system (copyright 1983,
 Carnegie Mellon University). Gaussian is a federally registered
 trademark of Gaussian, Inc.
  
 This software contains proprietary and confidential information,
 including trade secrets, belonging to Gaussian, Inc.
  
 This software is provided under written license and may be
 used, copied, transmitted, or stored only in accord with that
 written license.
  
 The following legend is applicable only to US Government
 contracts under DFARS:
  
                    RESTRICTED RIGHTS LEGEND
  
 Use, duplication or disclosure by the US Government is subject
 to restrictions as set forth in subparagraph (c)(1)(ii) of the
 Rights in Technical Data and Computer Software clause at DFARS
 252.227-7013.
  
 Gaussian, Inc.
 Carnegie Office Park, Building 6, Pittsburgh, PA 15106 USA
  
 The following legend is applicable only to US Government
 contracts under FAR:
  
                    RESTRICTED RIGHTS LEGEND
  
 Use, reproduction and disclosure by the US Government is subject
 to restrictions as set forth in subparagraph (c) of the
 Commercial Computer Software - Restricted Rights clause at FAR
 52.227-19.
  
 Gaussian, Inc.
 Carnegie Office Park, Building 6, Pittsburgh, PA 15106 USA
  
  
 ---------------------------------------------------------------
 Warning -- This program may not be used in any manner that
 competes with the business of Gaussian, Inc. or will provide
 assistance to any competitor of Gaussian, Inc.  The licensee
 of this program is prohibited from giving any competitor of
 Gaussian, Inc. access to this program.  By using this program,
 the user acknowledges that Gaussian, Inc. is engaged in the
 business of creating and licensing software in the field of
 computational chemistry and represents and warrants to the
 licensee that it is not a competitor of Gaussian, Inc. and that
 it will not use this program in any manner prohibited above.
 ---------------------------------------------------------------
  

 Cite this work as:
 Gaussian 03, Revision B.05,
 M. J. Frisch, G. W. Trucks, H. B. Schlegel, G. E. Scuseria, 
 M. A. Robb, J. R. Cheeseman, J. A. Montgomery, Jr., T. Vreven, 
 K. N. Kudin, J. C. Burant, J. M. Millam, S. S. Iyengar, J. Tomasi, 
 V. Barone, B. Mennucci, M. Cossi, G. Scalmani, N. Rega, 
 G. A. Petersson, H. Nakatsuji, M. Hada, M. Ehara, K. Toyota, 
 R. Fukuda, J. Hasegawa, M. Ishida, T. Nakajima, Y. Honda, O. Kitao, 
 H. Nakai, M. Klene, X. Li, J. E. Knox, H. P. Hratchian, J. B. Cross, 
 C. Adamo, J. Jaramillo, R. Gomperts, R. E. Stratmann, O. Yazyev, 
 A. J. Austin, R. Cammi, C. Pomelli, J. W. Ochterski, P. Y. Ayala, 
 K. Morokuma, G. A. Voth, P. Salvador, J. J. Dannenberg, 
 V. G. Zakrzewski, S. Dapprich, A. D. Daniels, M. C. Strain, 
 O. Farkas, D. K. Malick, A. D. Rabuck, K. Raghavachari, 
 J. B. Foresman, J. V. Ortiz, Q. Cui, A. G. Baboul, S. Clifford, 
 J. Cioslowski, B. B. Stefanov, G. Liu, A. Liashenko, P. Piskorz, 
 I. Komaromi, R. L. Martin, D. J. Fox, T. Keith, M. A. Al-Laham, 
 C. Y. Peng, A. Nanayakkara, M. Challacombe, P. M. W. Gill, 
 B. Johnson, W. Chen, M. W. Wong, C. Gonzalez, and J. A. Pople, 
 Gaussian, Inc., Pittsburgh PA, 2003.
 
 **********************************************
 Gaussian 03:  x86-Win32-G03RevB.05  8-Nov-2003
                  01-Jul-2010 
 **********************************************
 %mem=36000000
 --------------------------------------
 #CCSD(T)=FULL/6-31G* opt=z-matrix freq
 --------------------------------------

 Warning:  this job cannot use analytic gradients
           and so will do many energy evaluations.

 1/18=40,29=20000,38=1/1,14;
 2/17=6,18=5,29=3,40=1/2;
 3/5=1,6=6,7=1,11=9,16=1,25=1,30=1/1,2,3;
 4//1;
 5/5=2,38=5/2;
 8/6=7,9=120000,10=90/1,4;
 9/5=7,14=2/13;
 6/7=2,8=2,9=2,10=2/1;
 1/18=40/14(1);
 99//99;
 2/29=3/2;
 3/5=1,6=6,7=1,11=9,16=1,25=1,30=1/1,2,3;
 4/5=5,16=3/1;
 5/5=2,38=5/2;
 8/6=7,9=120000,10=90/1,4;
 9/5=7,14=2/13;
 1/18=40/14(-6);
 2/29=3/2;
 6/7=2,8=2,9=2,10=2/1;
 99//99;
 ---------------------------------------------------------------
 AsF triplet casno=15120135 state=1 config=1 method=63 basis=1ÿÿ
 ---------------------------------------------------------------
 Symbolic Z-matrix:
 Charge =  0 Multiplicity = 3
 As
 F                    1    r
       Variables:
  r                     1.7374                   
 

 NEF-NEF-NEF-NEF-NEF-NEF-NEF-NEF-NEF-NEF-NEF-NEF-NEF-NEF-NEF-NEF-NEF-NEF-
 NUMERICAL EIGENVECTOR FOLLOWING MINIMUM SEARCH
 INITIALIZATION PASS
                       ----------------------------
                       !    Initial Parameters    !
                       ! (Angstroms and Degrees)  !
 ----------------------                            ----------------------
 !      Name          Value   Derivative information (Atomic Units)     !
 ------------------------------------------------------------------------
 !        r          1.7374   estimate D2E/DX2                          !
 ------------------------------------------------------------------------


 ***************************************************
 ** O P T I M I Z A T I O N   P A R A M E T E R S **
 **  MAXIMUM NO. OF ITERATIONS      :          21 **
 **  MAXIMUM ALLOWED STEP LENGTH    :    0.300000 **
 ***************************************************



 NEF-NEF-NEF-NEF-NEF-NEF-NEF-NEF-NEF-NEF-NEF-NEF-NEF-NEF-NEF-NEF-NEF-NEF-
 ------------------------------------------------------------------------
                         Z-MATRIX (ANGSTROMS AND DEGREES)
 CD Cent Atom  N1     Length/X     N2    Alpha/Y     N3     Beta/Z      J
 ------------------------------------------------------------------------
   1   1  As
   2   2  F     1   1.737400(  1)
 ------------------------------------------------------------------------
                         Z-Matrix orientation:                         
 ---------------------------------------------------------------------
 Center     Atomic     Atomic              Coordinates (Angstroms)
 Number     Number      Type              X           Y           Z
 ---------------------------------------------------------------------
    1         33             0        0.000000    0.000000    0.000000
    2          9             0        0.000000    0.000000    1.737400
 ---------------------------------------------------------------------
 Stoichiometry    AsF(3)
 Framework group  C*V[C*(FAs)]
 Deg. of freedom     1
 Full point group                 C*V     NOp   4
 Largest Abelian subgroup         C2V     NOp   4
 Largest concise Abelian subgroup C1      NOp   1
                         Standard orientation:                         
 ---------------------------------------------------------------------
 Center     Atomic     Atomic              Coordinates (Angstroms)
 Number     Number      Type              X           Y           Z
 ---------------------------------------------------------------------
    1         33             0        0.000000    0.000000    0.372300
    2          9             0        0.000000    0.000000   -1.365100
 ---------------------------------------------------------------------
 Rotational constants (GHZ):      0.0000000     11.0471823     11.0471823
 Standard basis: 6-31G(d) (6D, 7F)
 There are    24 symmetry adapted basis functions of A1  symmetry.
 There are     3 symmetry adapted basis functions of A2  symmetry.
 There are     9 symmetry adapted basis functions of B1  symmetry.
 There are     9 symmetry adapted basis functions of B2  symmetry.
 Integral buffers will be    262144 words long.
 Raffenetti 2 integral format.
 Two-electron integral symmetry is turned on.
    45 basis functions,   111 primitive gaussians,    45 cartesian basis functions
    22 alpha electrons       20 beta electrons
       nuclear repulsion energy        90.4602456919 Hartrees.
 NAtoms=    2 NActive=    2 NUniq=    2 SFac= 1.00D+00 NAtFMM=   60 Big=F
 One-electron integrals computed using PRISM.
 NBasis=    45 RedAO= T  NBF=    24     3     9     9
 NBsUse=    45 1.00D-06 NBFU=    24     3     9     9
 Harris functional with IExCor=  205 diagonalized for initial guess.
 ExpMin= 1.07D-01 ExpMax= 5.26D+05 ExpMxC= 5.07D+03 IAcc=2 IRadAn=         4 AccDes= 0.00D+00
 HarFok:  IExCor= 205 AccDes= 0.00D+00 IRadAn=         4 IDoV=1
 ScaDFX=  1.000000  1.000000  1.000000  1.000000
 Initial guess orbital symmetries:
 Alpha Orbitals:
       Occupied  (SG) (SG) (SG) (PI) (PI) (SG) (SG) (SG) (PI) (PI)
                 (SG) (PI) (PI) (DLTA) (DLTA) (SG) (SG) (PI) (PI)
                 (SG) (PI) (PI)
       Virtual   (SG) (SG) (PI) (PI) (SG) (DLTA) (DLTA) (PI) (PI)
                 (SG) (SG) (PI) (PI) (SG) (SG) (DLTA) (DLTA) (PI)
                 (PI) (SG) (SG) (SG) (SG)
 Beta  Orbitals:
       Occupied  (SG) (SG) (SG) (PI) (PI) (SG) (SG) (SG) (PI) (PI)
                 (SG) (PI) (PI) (DLTA) (DLTA) (SG) (SG) (PI) (PI)
                 (SG)
       Virtual   (PI) (PI) (SG) (SG) (PI) (PI) (SG) (DLTA) (DLTA)
                 (PI) (PI) (SG) (SG) (PI) (PI) (SG) (SG) (DLTA)
                 (DLTA) (PI) (PI) (SG) (SG) (SG) (SG)
 The electronic state of the initial guess is 3-SG.
 <S**2> of initial guess= 2.0000
 Requested convergence on RMS density matrix=1.00D-08 within 128 cycles.
 Requested convergence on MAX density matrix=1.00D-06.
 Requested convergence on             energy=1.00D-06.
 No special actions if energy rises.
 Keep R1 and R2 integrals in memory in canonical form, NReq=     1574082.
 SCF Done:  E(UHF) =  -2331.41865793     A.U. after   14 cycles
             Convg  =    0.3806D-08             -V/T =  2.0026
             S**2   =   2.0206
 Annihilation of the first spin contaminant:
 S**2 before annihilation     2.0206,   after     2.0000
 Range of M.O.s used for correlation:     1    45
 NBasis=    45 NAE=    22 NBE=    20 NFC=     0 NFV=     0
 NROrb=     45 NOA=    22 NOB=    20 NVA=    23 NVB=    25

 **** Warning!!: The largest alpha MO coefficient is  0.19548650D+02


 **** Warning!!: The largest beta MO coefficient is  0.19548611D+02

 Estimate disk for full transformation     3797851 words.
 Spin components of T(2) and E(2):
     alpha-alpha T2 =       0.1209250936D-01 E2=     -0.4255023373D-01
     alpha-beta  T2 =       0.5580267326D-01 E2=     -0.1992997548D+00
     beta-beta   T2 =       0.9103857213D-02 E2=     -0.3602379551D-01
 ANorm=    0.1037785643D+01
 E2=       -0.2778737840D+00 EUMP2=       -0.23316965317139D+04
 (S**2,0)=  0.20206D+01           (S**2,1)=  0.20084D+01
 E(PUHF)=      -0.23314211720D+04        E(PMP2)=      -0.23316983054D+04
 Iterations=  50 Convergence= 0.100D-06
 Iteration Nr.   1
 **********************
 E(PMP3)=      -0.23317013489D+04
 MP4(R+Q)=  0.22413159D-02
 E3=       -0.37315225D-02        EUMP3=      -0.23317002632D+04
 E4(DQ)=   -0.43766729D-02        UMP4(DQ)=   -0.23317046399D+04
 E4(SDQ)=  -0.93759321D-02        UMP4(SDQ)=  -0.23317096392D+04
 DE(Corr)= -0.27889572     E(CORR)=     -2331.6975537    
 NORM(A)=   0.10435081D+01
 Iteration Nr.   2
 **********************
 DE(Corr)= -0.28836074     E(CORR)=     -2331.7070187     Delta=-9.47D-03
 NORM(A)=   0.10485176D+01
 Iteration Nr.   3
 **********************
 DE(Corr)= -0.28862958     E(CORR)=     -2331.7072875     Delta=-2.69D-04
 NORM(A)=   0.10509986D+01
 Iteration Nr.   4
 **********************
 DE(Corr)= -0.28996556     E(CORR)=     -2331.7086235     Delta=-1.34D-03
 NORM(A)=   0.10519425D+01
 Iteration Nr.   5
 **********************
 DE(Corr)= -0.29012652     E(CORR)=     -2331.7087845     Delta=-1.61D-04
 NORM(A)=   0.10522792D+01
 Iteration Nr.   6
 **********************
 DE(Corr)= -0.29016563     E(CORR)=     -2331.7088236     Delta=-3.91D-05
 NORM(A)=   0.10523326D+01
 Iteration Nr.   7
 **********************
 DE(Corr)= -0.29017146     E(CORR)=     -2331.7088294     Delta=-5.83D-06
 NORM(A)=   0.10523436D+01
 Iteration Nr.   8
 **********************
 DE(Corr)= -0.29016791     E(CORR)=     -2331.7088258     Delta= 3.55D-06
 NORM(A)=   0.10523450D+01
 Iteration Nr.   9
 **********************
 DE(Corr)= -0.29017190     E(CORR)=     -2331.7088298     Delta=-3.99D-06
 NORM(A)=   0.10523456D+01
 Iteration Nr.  10
 **********************
 DE(Corr)= -0.29017081     E(CORR)=     -2331.7088287     Delta= 1.10D-06
 NORM(A)=   0.10523466D+01
 Iteration Nr.  11
 **********************
 DE(Corr)= -0.29017198     E(CORR)=     -2331.7088299     Delta=-1.18D-06
 NORM(A)=   0.10523472D+01
 Iteration Nr.  12
 **********************
 DE(Corr)= -0.29017202     E(CORR)=     -2331.7088299     Delta=-3.86D-08
 NORM(A)=   0.10523478D+01
 Iteration Nr.  13
 **********************
 DE(Corr)= -0.29017218     E(CORR)=     -2331.7088301     Delta=-1.59D-07
 NORM(A)=   0.10523480D+01
 Iteration Nr.  14
 **********************
 DE(Corr)= -0.29017223     E(CORR)=     -2331.7088302     Delta=-4.72D-08
 NORM(A)=   0.10523481D+01
 Largest amplitude= 6.04D-02
 Time for triples=       15.00 seconds.
 T4(CCSD)= -0.79577338D-02
 T5(CCSD)=  0.13660057D-02
 CCSD(T)= -0.23317154219D+04

 S**2, projected HF & approx projected MPn energies after annihilation of
 unwanted spin states (see manual for definitions):

 spins       (S**2,0) (S**2,1)    PUHF        PMP2        PMP3        PMP4
 annihilated
 s+1         1.99997  2.00002-2331.421172-2331.698305-2331.701349
 s+1,s+2     2.00000  2.00000-2331.421167-2331.698302-2331.701346
 s+1 to s+3  2.00000  2.00000-2331.421167-2331.698302-2331.701346
 s+1 to s+4  2.00000  2.00000-2331.421167-2331.698302-2331.701346
 s+1 to s+5  2.00000  2.00000-2331.421167
 s+1 to s+6  2.00000  2.00000-2331.421167


 **********************************************************************

            Population analysis using the SCF density.

 **********************************************************************

 Orbital symmetries:
 Alpha Orbitals:
       Occupied  (SG) (SG) (PI) (PI) (SG) (SG) (SG) (PI) (PI) (SG)
                 (SG) (PI) (PI) (DLTA) (DLTA) (SG) (SG) (PI) (PI)
                 (SG) (PI) (PI)
       Virtual   (SG) (SG) (PI) (PI) (DLTA) (DLTA) (SG) (PI) (PI)
                 (SG) (SG) (SG) (PI) (PI) (SG) (DLTA) (DLTA) (PI)
                 (PI) (SG) (SG) (SG) (SG)
 Beta  Orbitals:
       Occupied  (SG) (SG) (SG) (PI) (PI) (SG) (SG) (SG) (PI) (PI)
                 (SG) (PI) (PI) (DLTA) (DLTA) (SG) (SG) (PI) (PI)
                 (SG)
       Virtual   (PI) (PI) (SG) (SG) (PI) (PI) (SG) (DLTA) (DLTA)
                 (PI) (PI) (SG) (SG) (SG) (PI) (PI) (SG) (DLTA)
                 (DLTA) (PI) (PI) (SG) (SG) (SG) (SG)
 The electronic state is 3-SG.
 Alpha  occ. eigenvalues -- -432.53912 -55.69616 -50.21510 -50.21510 -50.21322
 Alpha  occ. eigenvalues --  -26.27986  -7.97514  -5.93788  -5.93788  -5.93102
 Alpha  occ. eigenvalues --   -2.16752  -2.16307  -2.16307  -2.16164  -2.16164
 Alpha  occ. eigenvalues --   -1.56058  -0.83073  -0.65431  -0.65431  -0.58934
 Alpha  occ. eigenvalues --   -0.36284  -0.36284
 Alpha virt. eigenvalues --    0.10713   0.28456   0.49654   0.49654   0.50189
 Alpha virt. eigenvalues --    0.50189   0.56502   0.59222   0.59222   0.77935
 Alpha virt. eigenvalues --    1.39705   1.48613   1.60305   1.60305   1.96283
 Alpha virt. eigenvalues --    2.15354   2.15354   2.24928   2.24928   2.71545
 Alpha virt. eigenvalues --    4.44833   7.52598  58.70887
  Beta  occ. eigenvalues -- -432.53387 -55.69340 -50.21195 -50.20717 -50.20717
  Beta  occ. eigenvalues --  -26.27232  -7.96444  -5.92980  -5.91739  -5.91739
  Beta  occ. eigenvalues --   -2.16285  -2.15690  -2.15690  -2.14941  -2.14941
  Beta  occ. eigenvalues --   -1.54059  -0.73376  -0.61457  -0.61457  -0.50798
  Beta virt. eigenvalues --    0.04968   0.04968   0.14827   0.31251   0.57373
  Beta virt. eigenvalues --    0.57373   0.57628   0.63425   0.63425   0.66006
  Beta virt. eigenvalues --    0.66006   0.82203   1.42512   1.49211   1.62009
  Beta virt. eigenvalues --    1.62009   1.96537   2.15924   2.15924   2.25853
  Beta virt. eigenvalues --    2.25853   2.73012   4.45447   7.54099  58.71732
          Condensed to atoms (all electrons):
              1          2
     1  As  32.334920   0.142744
     2  F    0.142744   9.379593
 Mulliken atomic charges:
              1
     1  As   0.522337
     2  F   -0.522337
 Sum of Mulliken charges=   0.00000
 Atomic charges with hydrogens summed into heavy atoms:
              1
     1  As   0.522337
     2  F   -0.522337
 Sum of Mulliken charges=   0.00000
          Atomic-Atomic Spin Densities.
              1          2
     1  As   2.026566  -0.079108
     2  F   -0.079108   0.131651
 Mulliken atomic spin densities:
              1
     1  As   1.947458
     2  F    0.052542
 Sum of Mulliken spin densities=   2.00000
 Electronic spatial extent (au):  <R**2>=   126.9420
 Charge=     0.0000 electrons
 Dipole moment (field-independent basis, Debye):
    X=     0.0000    Y=     0.0000    Z=     1.9476  Tot=     1.9476
 Quadrupole moment (field-independent basis, Debye-Ang):
   XX=   -22.0510   YY=   -22.0510   ZZ=   -24.1124
   XY=     0.0000   XZ=     0.0000   YZ=     0.0000
 Traceless Quadrupole moment (field-independent basis, Debye-Ang):
   XX=     0.6871   YY=     0.6871   ZZ=    -1.3743
   XY=     0.0000   XZ=     0.0000   YZ=     0.0000
 Octapole moment (field-independent basis, Debye-Ang**2):
  XXX=     0.0000  YYY=     0.0000  ZZZ=     5.6954  XYY=     0.0000
  XXY=     0.0000  XXZ=    -0.5328  XZZ=     0.0000  YZZ=     0.0000
  YYZ=    -0.5328  XYZ=     0.0000
 Hexadecapole moment (field-independent basis, Debye-Ang**3):
 XXXX=   -26.2359 YYYY=   -26.2359 ZZZZ=   -92.9608 XXXY=     0.0000
 XXXZ=     0.0000 YYYX=     0.0000 YYYZ=     0.0000 ZZZX=     0.0000
 ZZZY=     0.0000 XXYY=    -8.7453 XXZZ=   -19.7235 YYZZ=   -19.7235
 XXYZ=     0.0000 YYXZ=     0.0000 ZZXY=     0.0000
 N-N= 9.046024569190D+01 E-N=-5.756753397449D+03  KE= 2.325409810176D+03
 Symmetry A1   KE= 1.705935626316D+03
 Symmetry A2   KE= 3.424895164952D+01
 Symmetry B1   KE= 2.926126161054D+02
 Symmetry B2   KE= 2.926126161054D+02

 NEF-NEF-NEF-NEF-NEF-NEF-NEF-NEF-NEF-NEF-NEF-NEF-NEF-NEF-NEF-NEF-NEF-NEF-
 NUMERICAL EIGENVECTOR FOLLOWING MINIMUM SEARCH
 NUMERICALLY ESTIMATING GRADIENTS
 ITERATION   0 VARIABLE  1 STEP  1

 NEF-NEF-NEF-NEF-NEF-NEF-NEF-NEF-NEF-NEF-NEF-NEF-NEF-NEF-NEF-NEF-NEF-NEF-
 ------------------------------------------------------------------------
                         Z-MATRIX (ANGSTROMS AND DEGREES)
 CD Cent Atom  N1     Length/X     N2    Alpha/Y     N3     Beta/Z      J
 ------------------------------------------------------------------------
   1   1  As
   2   2  F     1   1.737469(  1)
 ------------------------------------------------------------------------
                         Z-Matrix orientation:                         
 ---------------------------------------------------------------------
 Center     Atomic     Atomic              Coordinates (Angstroms)
 Number     Number      Type              X           Y           Z
 ---------------------------------------------------------------------
    1         33             0        0.000000    0.000000    0.000000
    2          9             0        0.000000    0.000000    1.737469
 ---------------------------------------------------------------------
 Stoichiometry    AsF(3)
 Framework group  C*V[C*(FAs)]
 Deg. of freedom     1
 Full point group                 C*V     NOp   4
 Largest Abelian subgroup         C2V     NOp   4
 Largest concise Abelian subgroup C1      NOp   1
                         Standard orientation:                         
 ---------------------------------------------------------------------
 Center     Atomic     Atomic              Coordinates (Angstroms)
 Number     Number      Type              X           Y           Z
 ---------------------------------------------------------------------
    1         33             0        0.000000    0.000000    0.372315
    2          9             0        0.000000    0.000000   -1.365154
 ---------------------------------------------------------------------
 Rotational constants (GHZ):      0.0000000     11.0463012     11.0463012
 Standard basis: 6-31G(d) (6D, 7F)
 There are    24 symmetry adapted basis functions of A1  symmetry.
 There are     3 symmetry adapted basis functions of A2  symmetry.
 There are     9 symmetry adapted basis functions of B1  symmetry.
 There are     9 symmetry adapted basis functions of B2  symmetry.
 Integral buffers will be    262144 words long.
 Raffenetti 2 integral format.
 Two-electron integral symmetry is turned on.
    45 basis functions,   111 primitive gaussians,    45 cartesian basis functions
    22 alpha electrons       20 beta electrons
       nuclear repulsion energy        90.4566379050 Hartrees.
 NAtoms=    2 NActive=    2 NUniq=    2 SFac= 1.00D+00 NAtFMM=   60 Big=F
 One-electron integrals computed using PRISM.
 NBasis=    45 RedAO= T  NBF=    24     3     9     9
 NBsUse=    45 1.00D-06 NBFU=    24     3     9     9
 Initial guess read from the read-write file:
 Initial guess orbital symmetries:
 Alpha Orbitals:
       Occupied  (SG) (SG) (PI) (PI) (SG) (SG) (SG) (PI) (PI) (SG)
                 (SG) (PI) (PI) (DLTA) (DLTA) (SG) (SG) (PI) (PI)
                 (SG) (PI) (PI)
       Virtual   (SG) (SG) (PI) (PI) (DLTA) (DLTA) (SG) (PI) (PI)
                 (SG) (SG) (SG) (PI) (PI) (SG) (DLTA) (DLTA) (PI)
                 (PI) (SG) (SG) (SG) (SG)
 Beta  Orbitals:
       Occupied  (SG) (SG) (SG) (PI) (PI) (SG) (SG) (SG) (PI) (PI)
                 (SG) (PI) (PI) (DLTA) (DLTA) (SG) (SG) (PI) (PI)
                 (SG)
       Virtual   (PI) (PI) (SG) (SG) (PI) (PI) (SG) (DLTA) (DLTA)
                 (PI) (PI) (SG) (SG) (SG) (PI) (PI) (SG) (DLTA)
                 (DLTA) (PI) (PI) (SG) (SG) (SG) (SG)
 <S**2> of initial guess= 2.0206
 Harris functional with IExCor=  205 diagonalized for initial guess.
 ExpMin= 1.07D-01 ExpMax= 5.26D+05 ExpMxC= 5.07D+03 IAcc=2 IRadAn=         4 AccDes= 0.00D+00
 HarFok:  IExCor= 205 AccDes= 0.00D+00 IRadAn=         4 IDoV=1
 ScaDFX=  1.000000  1.000000  1.000000  1.000000
 Requested convergence on RMS density matrix=1.00D-08 within 128 cycles.
 Requested convergence on MAX density matrix=1.00D-06.
 Requested convergence on             energy=1.00D-06.
 No special actions if energy rises.
 Keep R1 and R2 integrals in memory in canonical form, NReq=     1574082.
 SCF Done:  E(UHF) =  -2331.41865673     A.U. after    7 cycles
             Convg  =    0.4105D-08             -V/T =  2.0026
             S**2   =   2.0206
 Annihilation of the first spin contaminant:
 S**2 before annihilation     2.0206,   after     2.0000
 Range of M.O.s used for correlation:     1    45
 NBasis=    45 NAE=    22 NBE=    20 NFC=     0 NFV=     0
 NROrb=     45 NOA=    22 NOB=    20 NVA=    23 NVB=    25

 **** Warning!!: The largest alpha MO coefficient is  0.19548646D+02


 **** Warning!!: The largest beta MO coefficient is  0.19548608D+02

 Estimate disk for full transformation     3797851 words.
 Spin components of T(2) and E(2):
     alpha-alpha T2 =       0.1209273088D-01 E2=     -0.4255049680D-01
     alpha-beta  T2 =       0.5580410874D-01 E2=     -0.1993014172D+00
     beta-beta   T2 =       0.9103986691D-02 E2=     -0.3602383837D-01
 ANorm=    0.1037786503D+01
 E2=       -0.2778757523D+00 EUMP2=       -0.23316965324814D+04
 (S**2,0)=  0.20206D+01           (S**2,1)=  0.20084D+01
 E(PUHF)=      -0.23314211707D+04        E(PMP2)=      -0.23316983061D+04
 Iterations=  50 Convergence= 0.100D-06
 Iteration Nr.   1
 **********************
 E(PMP3)=      -0.23317013492D+04
 MP4(R+Q)=  0.22414283D-02
 E3=       -0.37311327D-02        EUMP3=      -0.23317002636D+04
 E4(DQ)=   -0.43768455D-02        UMP4(DQ)=   -0.23317046405D+04
 E4(SDQ)=  -0.93764797D-02        UMP4(SDQ)=  -0.23317096401D+04
 DE(Corr)= -0.27889713     E(CORR)=     -2331.6975539    
 NORM(A)=   0.10435091D+01
 Iteration Nr.   2
 **********************
 DE(Corr)= -0.28836271     E(CORR)=     -2331.7070194     Delta=-9.47D-03
 NORM(A)=   0.10485188D+01
 Iteration Nr.   3
 **********************
 DE(Corr)= -0.28863136     E(CORR)=     -2331.7072881     Delta=-2.69D-04
 NORM(A)=   0.10510001D+01
 Iteration Nr.   4
 **********************
 DE(Corr)= -0.28996750     E(CORR)=     -2331.7086242     Delta=-1.34D-03
 NORM(A)=   0.10519442D+01
 Iteration Nr.   5
 **********************
 DE(Corr)= -0.29012848     E(CORR)=     -2331.7087852     Delta=-1.61D-04
 NORM(A)=   0.10522809D+01
 Iteration Nr.   6
 **********************
 DE(Corr)= -0.29016759     E(CORR)=     -2331.7088243     Delta=-3.91D-05
 NORM(A)=   0.10523344D+01
 Iteration Nr.   7
 **********************
 DE(Corr)= -0.29017342     E(CORR)=     -2331.7088301     Delta=-5.83D-06
 NORM(A)=   0.10523453D+01
 Iteration Nr.   8
 **********************
 DE(Corr)= -0.29016987     E(CORR)=     -2331.7088266     Delta= 3.55D-06
 NORM(A)=   0.10523468D+01
 Iteration Nr.   9
 **********************
 DE(Corr)= -0.29017386     E(CORR)=     -2331.7088306     Delta=-3.99D-06
 NORM(A)=   0.10523474D+01
 Iteration Nr.  10
 **********************
 DE(Corr)= -0.29017276     E(CORR)=     -2331.7088295     Delta= 1.10D-06
 NORM(A)=   0.10523483D+01
 Iteration Nr.  11
 **********************
 DE(Corr)= -0.29017394     E(CORR)=     -2331.7088307     Delta=-1.18D-06
 NORM(A)=   0.10523490D+01
 Iteration Nr.  12
 **********************
 DE(Corr)= -0.29017398     E(CORR)=     -2331.7088307     Delta=-3.86D-08
 NORM(A)=   0.10523496D+01
 Iteration Nr.  13
 **********************
 DE(Corr)= -0.29017414     E(CORR)=     -2331.7088309     Delta=-1.59D-07
 NORM(A)=   0.10523498D+01
 Iteration Nr.  14
 **********************
 DE(Corr)= -0.29017418     E(CORR)=     -2331.7088309     Delta=-4.72D-08
 NORM(A)=   0.10523499D+01
 Largest amplitude= 6.04D-02
 Time for triples=       15.00 seconds.
 T4(CCSD)= -0.79582187D-02
 T5(CCSD)=  0.13661747D-02
 CCSD(T)= -0.23317154230D+04

 S**2, projected HF & approx projected MPn energies after annihilation of
 unwanted spin states (see manual for definitions):

 spins       (S**2,0) (S**2,1)    PUHF        PMP2        PMP3        PMP4
 annihilated
 s+1         1.99997  2.00002-2331.421171-2331.698306-2331.701349
 s+1,s+2     2.00000  2.00000-2331.421166-2331.698302-2331.701346
 s+1 to s+3  2.00000  2.00000-2331.421166-2331.698302-2331.701346
 s+1 to s+4  2.00000  2.00000-2331.421166-2331.698302-2331.701346
 s+1 to s+5  2.00000  2.00000-2331.421166
 s+1 to s+6  2.00000  2.00000-2331.421166


 NEF-NEF-NEF-NEF-NEF-NEF-NEF-NEF-NEF-NEF-NEF-NEF-NEF-NEF-NEF-NEF-NEF-NEF-
 NUMERICAL EIGENVECTOR FOLLOWING MINIMUM SEARCH
 NUMERICALLY ESTIMATING GRADIENTS
 ITERATION   0 VARIABLE  1 STEP  2

 NEF-NEF-NEF-NEF-NEF-NEF-NEF-NEF-NEF-NEF-NEF-NEF-NEF-NEF-NEF-NEF-NEF-NEF-
 ------------------------------------------------------------------------
                         Z-MATRIX (ANGSTROMS AND DEGREES)
 CD Cent Atom  N1     Length/X     N2    Alpha/Y     N3     Beta/Z      J
 ------------------------------------------------------------------------
   1   1  As
   2   2  F     1   1.737331(  1)
 ------------------------------------------------------------------------
                         Z-Matrix orientation:                         
 ---------------------------------------------------------------------
 Center     Atomic     Atomic              Coordinates (Angstroms)
 Number     Number      Type              X           Y           Z
 ---------------------------------------------------------------------
    1         33             0        0.000000    0.000000    0.000000
    2          9             0        0.000000    0.000000    1.737331
 ---------------------------------------------------------------------
 Stoichiometry    AsF(3)
 Framework group  C*V[C*(FAs)]
 Deg. of freedom     1
 Full point group                 C*V     NOp   4
 Largest Abelian subgroup         C2V     NOp   4
 Largest concise Abelian subgroup C1      NOp   1
                         Standard orientation:                         
 ---------------------------------------------------------------------
 Center     Atomic     Atomic              Coordinates (Angstroms)
 Number     Number      Type              X           Y           Z
 ---------------------------------------------------------------------
    1         33             0        0.000000    0.000000    0.372285
    2          9             0        0.000000    0.000000   -1.365046
 ---------------------------------------------------------------------
 Rotational constants (GHZ):      0.0000000     11.0480636     11.0480636
 Standard basis: 6-31G(d) (6D, 7F)
 There are    24 symmetry adapted basis functions of A1  symmetry.
 There are     3 symmetry adapted basis functions of A2  symmetry.
 There are     9 symmetry adapted basis functions of B1  symmetry.
 There are     9 symmetry adapted basis functions of B2  symmetry.
 Integral buffers will be    262144 words long.
 Raffenetti 2 integral format.
 Two-electron integral symmetry is turned on.
    45 basis functions,   111 primitive gaussians,    45 cartesian basis functions
    22 alpha electrons       20 beta electrons
       nuclear repulsion energy        90.4638537665 Hartrees.
 NAtoms=    2 NActive=    2 NUniq=    2 SFac= 1.00D+00 NAtFMM=   60 Big=F
 One-electron integrals computed using PRISM.
 NBasis=    45 RedAO= T  NBF=    24     3     9     9
 NBsUse=    45 1.00D-06 NBFU=    24     3     9     9
 Initial guess read from the read-write file:
 Initial guess orbital symmetries:
 Alpha Orbitals:
       Occupied  (SG) (SG) (PI) (PI) (SG) (SG) (SG) (PI) (PI) (SG)
                 (SG) (PI) (PI) (DLTA) (DLTA) (SG) (SG) (PI) (PI)
                 (SG) (PI) (PI)
       Virtual   (SG) (SG) (PI) (PI) (DLTA) (DLTA) (SG) (PI) (PI)
                 (SG) (SG) (SG) (PI) (PI) (SG) (DLTA) (DLTA) (PI)
                 (PI) (SG) (SG) (SG) (SG)
 Beta  Orbitals:
       Occupied  (SG) (SG) (SG) (PI) (PI) (SG) (SG) (SG) (PI) (PI)
                 (SG) (PI) (PI) (DLTA) (DLTA) (SG) (SG) (PI) (PI)
                 (SG)
       Virtual   (PI) (PI) (SG) (SG) (PI) (PI) (SG) (DLTA) (DLTA)
                 (PI) (PI) (SG) (SG) (SG) (PI) (PI) (SG) (DLTA)
                 (DLTA) (PI) (PI) (SG) (SG) (SG) (SG)
 <S**2> of initial guess= 2.0206
 Harris functional with IExCor=  205 diagonalized for initial guess.
 ExpMin= 1.07D-01 ExpMax= 5.26D+05 ExpMxC= 5.07D+03 IAcc=2 IRadAn=         4 AccDes= 0.00D+00
 HarFok:  IExCor= 205 AccDes= 0.00D+00 IRadAn=         4 IDoV=1
 ScaDFX=  1.000000  1.000000  1.000000  1.000000
 Requested convergence on RMS density matrix=1.00D-08 within 128 cycles.
 Requested convergence on MAX density matrix=1.00D-06.
 Requested convergence on             energy=1.00D-06.
 No special actions if energy rises.
 Keep R1 and R2 integrals in memory in canonical form, NReq=     1574082.
 SCF Done:  E(UHF) =  -2331.41865913     A.U. after    7 cycles
             Convg  =    0.8076D-08             -V/T =  2.0026
             S**2   =   2.0206
 Annihilation of the first spin contaminant:
 S**2 before annihilation     2.0206,   after     2.0000
 Range of M.O.s used for correlation:     1    45
 NBasis=    45 NAE=    22 NBE=    20 NFC=     0 NFV=     0
 NROrb=     45 NOA=    22 NOB=    20 NVA=    23 NVB=    25

 **** Warning!!: The largest alpha MO coefficient is  0.19548654D+02


 **** Warning!!: The largest beta MO coefficient is  0.19548615D+02

 Estimate disk for full transformation     3797851 words.
 Spin components of T(2) and E(2):
     alpha-alpha T2 =       0.1209228854D-01 E2=     -0.4254997203D-01
     alpha-beta  T2 =       0.5580123922D-01 E2=     -0.1992980946D+00
     beta-beta   T2 =       0.9103727324D-02 E2=     -0.3602375203D-01
 ANorm=    0.1037784783D+01
 E2=       -0.2778718186D+00 EUMP2=       -0.23316965309437D+04
 (S**2,0)=  0.20206D+01           (S**2,1)=  0.20084D+01
 E(PUHF)=      -0.23314211733D+04        E(PMP2)=      -0.23316983047D+04
 Iterations=  50 Convergence= 0.100D-06
 Iteration Nr.   1
 **********************
 E(PMP3)=      -0.23317013485D+04
 MP4(R+Q)=  0.22412036D-02
 E3=       -0.37319118D-02        EUMP3=      -0.23317002629D+04
 E4(DQ)=   -0.43765003D-02        UMP4(DQ)=   -0.23317046394D+04
 E4(SDQ)=  -0.93753846D-02        UMP4(SDQ)=  -0.23317096382D+04
 DE(Corr)= -0.27889431     E(CORR)=     -2331.6975534    
 NORM(A)=   0.10435071D+01
 Iteration Nr.   2
 **********************
 DE(Corr)= -0.28835877     E(CORR)=     -2331.7070179     Delta=-9.46D-03
 NORM(A)=   0.10485164D+01
 Iteration Nr.   3
 **********************
 DE(Corr)= -0.28862779     E(CORR)=     -2331.7072869     Delta=-2.69D-04
 NORM(A)=   0.10509971D+01
 Iteration Nr.   4
 **********************
 DE(Corr)= -0.28996363     E(CORR)=     -2331.7086228     Delta=-1.34D-03
 NORM(A)=   0.10519408D+01
 Iteration Nr.   5
 **********************
 DE(Corr)= -0.29012457     E(CORR)=     -2331.7087837     Delta=-1.61D-04
 NORM(A)=   0.10522774D+01
 Iteration Nr.   6
 **********************
 DE(Corr)= -0.29016368     E(CORR)=     -2331.7088228     Delta=-3.91D-05
 NORM(A)=   0.10523308D+01
 Iteration Nr.   7
 **********************
 DE(Corr)= -0.29016950     E(CORR)=     -2331.7088286     Delta=-5.83D-06
 NORM(A)=   0.10523418D+01
 Iteration Nr.   8
 **********************
 DE(Corr)= -0.29016595     E(CORR)=     -2331.7088251     Delta= 3.55D-06
 NORM(A)=   0.10523432D+01
 Iteration Nr.   9
 **********************
 DE(Corr)= -0.29016994     E(CORR)=     -2331.7088291     Delta=-3.99D-06
 NORM(A)=   0.10523439D+01
 Iteration Nr.  10
 **********************
 DE(Corr)= -0.29016885     E(CORR)=     -2331.7088280     Delta= 1.09D-06
 NORM(A)=   0.10523448D+01
 Iteration Nr.  11
 **********************
 DE(Corr)= -0.29017002     E(CORR)=     -2331.7088291     Delta=-1.18D-06
 NORM(A)=   0.10523455D+01
 Iteration Nr.  12
 **********************
 DE(Corr)= -0.29017006     E(CORR)=     -2331.7088292     Delta=-3.86D-08
 NORM(A)=   0.10523460D+01
 Iteration Nr.  13
 **********************
 DE(Corr)= -0.29017022     E(CORR)=     -2331.7088293     Delta=-1.59D-07
 NORM(A)=   0.10523463D+01
 Iteration Nr.  14
 **********************
 DE(Corr)= -0.29017027     E(CORR)=     -2331.7088294     Delta=-4.72D-08
 NORM(A)=   0.10523464D+01
 Largest amplitude= 6.04D-02
 Time for triples=       13.00 seconds.
 T4(CCSD)= -0.79572492D-02
 T5(CCSD)=  0.13658369D-02
 CCSD(T)= -0.23317154208D+04

 S**2, projected HF & approx projected MPn energies after annihilation of
 unwanted spin states (see manual for definitions):

 spins       (S**2,0) (S**2,1)    PUHF        PMP2        PMP3        PMP4
 annihilated
 s+1         1.99997  2.00002-2331.421173-2331.698305-2331.701349
 s+1,s+2     2.00000  2.00000-2331.421168-2331.698301-2331.701346
 s+1 to s+3  2.00000  2.00000-2331.421168-2331.698301-2331.701346
 s+1 to s+4  2.00000  2.00000-2331.421168-2331.698301-2331.701346
 s+1 to s+5  2.00000  2.00000-2331.421168
 s+1 to s+6  2.00000  2.00000-2331.421168


 NEF-NEF-NEF-NEF-NEF-NEF-NEF-NEF-NEF-NEF-NEF-NEF-NEF-NEF-NEF-NEF-NEF-NEF-
 NUMERICAL EIGENVECTOR FOLLOWING MINIMUM SEARCH
 GRADIENT ESTIMATION COMPLETE
 ITERATION   1
 HESSIAN EIGENVECTORS AND EIGENVALUES
                           1
     EIGENVALUES --     0.19482
       1  r             1.00000
 MINIMUM SEARCH. TAKING SIMPLE RFO STEP
 SEARCHING FOR LAMDA THAT MINIMIZES ALONG ALL MODES
 VALUE TAKEN    LAMDA=  -0.00034571
 STEP TAKEN. STEPSIZE IS  0.042088
 CURRENT PARAMETER VALUES (INTERNAL COORDINATES)
    I        X         GRADIENT    DISPLACEMENT       NEWX
    1    3.283210     -0.008214      0.042088      3.325299
         ITEM               VALUE     THRESHOLD  CONVERGED?
 MAXIMUM FORCE            0.008214     0.000450     NO 
 RMS     FORCE            0.008214     0.000300     NO 
 MAXIMUM DISPLACEMENT     0.042088     0.001800     NO 
 RMS     DISPLACEMENT     0.042088     0.001200     NO 
 PREDICTED CHANGE IN ENERGY  -0.000173

 NEF-NEF-NEF-NEF-NEF-NEF-NEF-NEF-NEF-NEF-NEF-NEF-NEF-NEF-NEF-NEF-NEF-NEF-
 ------------------------------------------------------------------------
                         Z-MATRIX (ANGSTROMS AND DEGREES)
 CD Cent Atom  N1     Length/X     N2    Alpha/Y     N3     Beta/Z      J
 ------------------------------------------------------------------------
   1   1  As
   2   2  F     1   1.759672(  1)
 ------------------------------------------------------------------------
                         Z-Matrix orientation:                         
 ---------------------------------------------------------------------
 Center     Atomic     Atomic              Coordinates (Angstroms)
 Number     Number      Type              X           Y           Z
 ---------------------------------------------------------------------
    1         33             0        0.000000    0.000000    0.000000
    2          9             0        0.000000    0.000000    1.759672
 ---------------------------------------------------------------------
 Stoichiometry    AsF(3)
 Framework group  C*V[C*(FAs)]
 Deg. of freedom     1
 Full point group                 C*V     NOp   4
 Largest Abelian subgroup         C2V     NOp   4
 Largest concise Abelian subgroup C1      NOp   1
                         Standard orientation:                         
 ---------------------------------------------------------------------
 Center     Atomic     Atomic              Coordinates (Angstroms)
 Number     Number      Type              X           Y           Z
 ---------------------------------------------------------------------
    1         33             0        0.000000    0.000000    0.377073
    2          9             0        0.000000    0.000000   -1.382600
 ---------------------------------------------------------------------
 Rotational constants (GHZ):      0.0000000     10.7693033     10.7693033
 Standard basis: 6-31G(d) (6D, 7F)
 There are    24 symmetry adapted basis functions of A1  symmetry.
 There are     3 symmetry adapted basis functions of A2  symmetry.
 There are     9 symmetry adapted basis functions of B1  symmetry.
 There are     9 symmetry adapted basis functions of B2  symmetry.
 Integral buffers will be    262144 words long.
 Raffenetti 2 integral format.
 Two-electron integral symmetry is turned on.
    45 basis functions,   111 primitive gaussians,    45 cartesian basis functions
    22 alpha electrons       20 beta electrons
       nuclear repulsion energy        89.3152887507 Hartrees.
 NAtoms=    2 NActive=    2 NUniq=    2 SFac= 1.00D+00 NAtFMM=   60 Big=F
 One-electron integrals computed using PRISM.
 NBasis=    45 RedAO= T  NBF=    24     3     9     9
 NBsUse=    45 1.00D-06 NBFU=    24     3     9     9
 Initial guess read from the read-write file:
 Initial guess orbital symmetries:
 Alpha Orbitals:
       Occupied  (SG) (SG) (PI) (PI) (SG) (SG) (SG) (PI) (PI) (SG)
                 (SG) (PI) (PI) (DLTA) (DLTA) (SG) (SG) (PI) (PI)
                 (SG) (PI) (PI)
       Virtual   (SG) (SG) (PI) (PI) (DLTA) (DLTA) (SG) (PI) (PI)
                 (SG) (SG) (SG) (PI) (PI) (SG) (DLTA) (DLTA) (PI)
                 (PI) (SG) (SG) (SG) (SG)
 Beta  Orbitals:
       Occupied  (SG) (SG) (SG) (PI) (PI) (SG) (SG) (SG) (PI) (PI)
                 (SG) (PI) (PI) (DLTA) (DLTA) (SG) (SG) (PI) (PI)
                 (SG)
       Virtual   (PI) (PI) (SG) (SG) (PI) (PI) (SG) (DLTA) (DLTA)
                 (PI) (PI) (SG) (SG) (SG) (PI) (PI) (SG) (DLTA)
                 (DLTA) (PI) (PI) (SG) (SG) (SG) (SG)
 <S**2> of initial guess= 2.0205
 Harris functional with IExCor=  205 diagonalized for initial guess.
 ExpMin= 1.07D-01 ExpMax= 5.26D+05 ExpMxC= 5.07D+03 IAcc=2 IRadAn=         4 AccDes= 0.00D+00
 HarFok:  IExCor= 205 AccDes= 0.00D+00 IRadAn=         4 IDoV=1
 ScaDFX=  1.000000  1.000000  1.000000  1.000000
 Requested convergence on RMS density matrix=1.00D-08 within 128 cycles.
 Requested convergence on MAX density matrix=1.00D-06.
 Requested convergence on             energy=1.00D-06.
 No special actions if energy rises.
 Keep R1 and R2 integrals in memory in canonical form, NReq=     1574082.
 SCF Done:  E(UHF) =  -2331.41799630     A.U. after   12 cycles
             Convg  =    0.7678D-08             -V/T =  2.0026
             S**2   =   2.0203
 Annihilation of the first spin contaminant:
 S**2 before annihilation     2.0203,   after     2.0000
 Range of M.O.s used for correlation:     1    45
 NBasis=    45 NAE=    22 NBE=    20 NFC=     0 NFV=     0
 NROrb=     45 NOA=    22 NOB=    20 NVA=    23 NVB=    25

 **** Warning!!: The largest alpha MO coefficient is  0.19546833D+02


 **** Warning!!: The largest beta MO coefficient is  0.19546797D+02

 Estimate disk for full transformation     3797851 words.
 Spin components of T(2) and E(2):
     alpha-alpha T2 =       0.1216395055D-01 E2=     -0.4263483896D-01
     alpha-beta  T2 =       0.5626736471D-01 E2=     -0.1998291858D+00
     beta-beta   T2 =       0.9143002839D-02 E2=     -0.3603332064D-01
 ANorm=    0.1038062772D+01
 E2=       -0.2784973454D+00 EUMP2=       -0.23316964936502D+04
 (S**2,0)=  0.20203D+01           (S**2,1)=  0.20083D+01
 E(PUHF)=      -0.23314204867D+04        E(PMP2)=      -0.23316982479D+04
 Iterations=  50 Convergence= 0.100D-06
 Iteration Nr.   1
 **********************
 E(PMP3)=      -0.23317011750D+04
 MP4(R+Q)=  0.22784089D-02
 E3=       -0.36082722D-02        EUMP3=      -0.23317001019D+04
 E4(DQ)=   -0.44315714D-02        UMP4(DQ)=   -0.23317045335D+04
 E4(SDQ)=  -0.95521819D-02        UMP4(SDQ)=  -0.23317096541D+04
 DE(Corr)= -0.27934018     E(CORR)=     -2331.6973365    
 NORM(A)=   0.10438328D+01
 Iteration Nr.   2
 **********************
 DE(Corr)= -0.28898675     E(CORR)=     -2331.7069831     Delta=-9.65D-03
 NORM(A)=   0.10489172D+01
 Iteration Nr.   3
 **********************
 DE(Corr)= -0.28919506     E(CORR)=     -2331.7071914     Delta=-2.08D-04
 NORM(A)=   0.10514988D+01
 Iteration Nr.   4
 **********************
 DE(Corr)= -0.29057977     E(CORR)=     -2331.7085761     Delta=-1.38D-03
 NORM(A)=   0.10524907D+01
 Iteration Nr.   5
 **********************
 DE(Corr)= -0.29074637     E(CORR)=     -2331.7087427     Delta=-1.67D-04
 NORM(A)=   0.10528481D+01
 Iteration Nr.   6
 **********************
 DE(Corr)= -0.29078670     E(CORR)=     -2331.7087830     Delta=-4.03D-05
 NORM(A)=   0.10529071D+01
 Iteration Nr.   7
 **********************
 DE(Corr)= -0.29079314     E(CORR)=     -2331.7087894     Delta=-6.44D-06
 NORM(A)=   0.10529192D+01
 Iteration Nr.   8
 **********************
 DE(Corr)= -0.29078933     E(CORR)=     -2331.7087856     Delta= 3.82D-06
 NORM(A)=   0.10529209D+01
 Iteration Nr.   9
 **********************
 DE(Corr)= -0.29079357     E(CORR)=     -2331.7087899     Delta=-4.24D-06
 NORM(A)=   0.10529216D+01
 Iteration Nr.  10
 **********************
 DE(Corr)= -0.29079237     E(CORR)=     -2331.7087887     Delta= 1.20D-06
 NORM(A)=   0.10529227D+01
 Iteration Nr.  11
 **********************
 DE(Corr)= -0.29079366     E(CORR)=     -2331.7087900     Delta=-1.29D-06
 NORM(A)=   0.10529234D+01
 Iteration Nr.  12
 **********************
 DE(Corr)= -0.29079369     E(CORR)=     -2331.7087900     Delta=-3.75D-08
 NORM(A)=   0.10529240D+01
 Iteration Nr.  13
 **********************
 DE(Corr)= -0.29079387     E(CORR)=     -2331.7087902     Delta=-1.79D-07
 NORM(A)=   0.10529243D+01
 Iteration Nr.  14
 **********************
 DE(Corr)= -0.29079393     E(CORR)=     -2331.7087902     Delta=-5.28D-08
 NORM(A)=   0.10529244D+01
 Largest amplitude= 6.24D-02
 Time for triples=       15.00 seconds.
 T4(CCSD)= -0.81152036D-02
 T5(CCSD)=  0.14210469D-02
 CCSD(T)= -0.23317154844D+04

 S**2, projected HF & approx projected MPn energies after annihilation of
 unwanted spin states (see manual for definitions):

 spins       (S**2,0) (S**2,1)    PUHF        PMP2        PMP3        PMP4
 annihilated
 s+1         1.99997  2.00002-2331.420487-2331.698248-2331.701175
 s+1,s+2     2.00000  2.00000-2331.420482-2331.698244-2331.701172
 s+1 to s+3  2.00000  2.00000-2331.420482-2331.698244-2331.701172
 s+1 to s+4  2.00000  2.00000-2331.420482-2331.698244-2331.701172
 s+1 to s+5  2.00000  2.00000-2331.420482
 s+1 to s+6  2.00000  2.00000-2331.420482


 NEF-NEF-NEF-NEF-NEF-NEF-NEF-NEF-NEF-NEF-NEF-NEF-NEF-NEF-NEF-NEF-NEF-NEF-
 NUMERICAL EIGENVECTOR FOLLOWING MINIMUM SEARCH
 SEARCHING FOR MINIMUM ALONG THE LINE
 ITERATION   1 STEP  1
 TAKING A FURTHER STEP OF LENGTH  0.012627 ALONG THE SEARCH DIRECTION
 ALPHA =  1.300000

 NEF-NEF-NEF-NEF-NEF-NEF-NEF-NEF-NEF-NEF-NEF-NEF-NEF-NEF-NEF-NEF-NEF-NEF-
 ------------------------------------------------------------------------
                         Z-MATRIX (ANGSTROMS AND DEGREES)
 CD Cent Atom  N1     Length/X     N2    Alpha/Y     N3     Beta/Z      J
 ------------------------------------------------------------------------
   1   1  As
   2   2  F     1   1.766354(  1)
 ------------------------------------------------------------------------
                         Z-Matrix orientation:                         
 ---------------------------------------------------------------------
 Center     Atomic     Atomic              Coordinates (Angstroms)
 Number     Number      Type              X           Y           Z
 ---------------------------------------------------------------------
    1         33             0        0.000000    0.000000    0.000000
    2          9             0        0.000000    0.000000    1.766354
 ---------------------------------------------------------------------
 Stoichiometry    AsF(3)
 Framework group  C*V[C*(FAs)]
 Deg. of freedom     1
 Full point group                 C*V     NOp   4
 Largest Abelian subgroup         C2V     NOp   4
 Largest concise Abelian subgroup C1      NOp   1
                         Standard orientation:                         
 ---------------------------------------------------------------------
 Center     Atomic     Atomic              Coordinates (Angstroms)
 Number     Number      Type              X           Y           Z
 ---------------------------------------------------------------------
    1         33             0        0.000000    0.000000    0.378504
    2          9             0        0.000000    0.000000   -1.387849
 ---------------------------------------------------------------------
 Rotational constants (GHZ):      0.0000000     10.6879824     10.6879824
 Standard basis: 6-31G(d) (6D, 7F)
 There are    24 symmetry adapted basis functions of A1  symmetry.
 There are     3 symmetry adapted basis functions of A2  symmetry.
 There are     9 symmetry adapted basis functions of B1  symmetry.
 There are     9 symmetry adapted basis functions of B2  symmetry.
 Integral buffers will be    262144 words long.
 Raffenetti 2 integral format.
 Two-electron integral symmetry is turned on.
    45 basis functions,   111 primitive gaussians,    45 cartesian basis functions
    22 alpha electrons       20 beta electrons
       nuclear repulsion energy        88.9774320679 Hartrees.
 NAtoms=    2 NActive=    2 NUniq=    2 SFac= 1.00D+00 NAtFMM=   60 Big=F
 One-electron integrals computed using PRISM.
 NBasis=    45 RedAO= T  NBF=    24     3     9     9
 NBsUse=    45 1.00D-06 NBFU=    24     3     9     9
 Initial guess read from the read-write file:
 Initial guess orbital symmetries:
 Alpha Orbitals:
       Occupied  (SG) (SG) (PI) (PI) (SG) (SG) (SG) (PI) (PI) (SG)
                 (SG) (PI) (PI) (DLTA) (DLTA) (SG) (SG) (PI) (PI)
                 (SG) (PI) (PI)
       Virtual   (SG) (SG) (PI) (PI) (DLTA) (DLTA) (SG) (PI) (PI)
                 (SG) (SG) (SG) (PI) (PI) (SG) (DLTA) (DLTA) (PI)
                 (PI) (SG) (SG) (SG) (SG)
 Beta  Orbitals:
       Occupied  (SG) (SG) (SG) (PI) (PI) (SG) (SG) (SG) (PI) (PI)
                 (SG) (PI) (PI) (DLTA) (DLTA) (SG) (SG) (PI) (PI)
                 (SG)
       Virtual   (PI) (PI) (SG) (SG) (SG) (PI) (PI) (DLTA) (DLTA)
                 (PI) (PI) (SG) (SG) (SG) (PI) (PI) (SG) (DLTA)
                 (DLTA) (PI) (PI) (SG) (SG) (SG) (SG)
 <S**2> of initial guess= 2.0203
 Harris functional with IExCor=  205 diagonalized for initial guess.
 ExpMin= 1.07D-01 ExpMax= 5.26D+05 ExpMxC= 5.07D+03 IAcc=2 IRadAn=         4 AccDes= 0.00D+00
 HarFok:  IExCor= 205 AccDes= 0.00D+00 IRadAn=         4 IDoV=1
 ScaDFX=  1.000000  1.000000  1.000000  1.000000
 Requested convergence on RMS density matrix=1.00D-08 within 128 cycles.
 Requested convergence on MAX density matrix=1.00D-06.
 Requested convergence on             energy=1.00D-06.
 No special actions if energy rises.
 Keep R1 and R2 integrals in memory in canonical form, NReq=     1574082.
 SCF Done:  E(UHF) =  -2331.41769565     A.U. after   11 cycles
             Convg  =    0.7982D-08             -V/T =  2.0026
             S**2   =   2.0202
 Annihilation of the first spin contaminant:
 S**2 before annihilation     2.0202,   after     2.0000
 Range of M.O.s used for correlation:     1    45
 NBasis=    45 NAE=    22 NBE=    20 NFC=     0 NFV=     0
 NROrb=     45 NOA=    22 NOB=    20 NVA=    23 NVB=    25

 **** Warning!!: The largest alpha MO coefficient is  0.19546073D+02


 **** Warning!!: The largest beta MO coefficient is  0.19546037D+02

 Estimate disk for full transformation     3797851 words.
 Spin components of T(2) and E(2):
     alpha-alpha T2 =       0.1218538219D-01 E2=     -0.4266005766D-01
     alpha-beta  T2 =       0.5640784841D-01 E2=     -0.1999857761D+00
     beta-beta   T2 =       0.9153819286D-02 E2=     -0.3603459508D-01
 ANorm=    0.1038145968D+01
 E2=       -0.2786804289D+00 EUMP2=       -0.23316963760765D+04
 (S**2,0)=  0.20202D+01           (S**2,1)=  0.20082D+01
 E(PUHF)=      -0.23314201790D+04        E(PMP2)=      -0.23316981244D+04
 Iterations=  50 Convergence= 0.100D-06
 Iteration Nr.   1
 **********************
 E(PMP3)=      -0.23317010174D+04
 MP4(R+Q)=  0.22898914D-02
 E3=       -0.35721271D-02        EUMP3=      -0.23316999482D+04
 E4(DQ)=   -0.44478012D-02        UMP4(DQ)=   -0.23317043960D+04
 E4(SDQ)=  -0.96051137D-02        UMP4(SDQ)=  -0.23317095533D+04
 DE(Corr)= -0.27946988     E(CORR)=     -2331.6971655    
 NORM(A)=   0.10439309D+01
 Iteration Nr.   2
 **********************
 DE(Corr)= -0.28917146     E(CORR)=     -2331.7068671     Delta=-9.70D-03
 NORM(A)=   0.10490380D+01
 Iteration Nr.   3
 **********************
 DE(Corr)= -0.28936103     E(CORR)=     -2331.7070567     Delta=-1.90D-04
 NORM(A)=   0.10516504D+01
 Iteration Nr.   4
 **********************
 DE(Corr)= -0.29076060     E(CORR)=     -2331.7084563     Delta=-1.40D-03
 NORM(A)=   0.10526572D+01
 Iteration Nr.   5
 **********************
 DE(Corr)= -0.29092890     E(CORR)=     -2331.7086245     Delta=-1.68D-04
 NORM(A)=   0.10530209D+01
 Iteration Nr.   6
 **********************
 DE(Corr)= -0.29096958     E(CORR)=     -2331.7086652     Delta=-4.07D-05
 NORM(A)=   0.10530816D+01
 Iteration Nr.   7
 **********************
 DE(Corr)= -0.29097622     E(CORR)=     -2331.7086719     Delta=-6.64D-06
 NORM(A)=   0.10530942D+01
 Iteration Nr.   8
 **********************
 DE(Corr)= -0.29097232     E(CORR)=     -2331.7086680     Delta= 3.90D-06
 NORM(A)=   0.10530959D+01
 Iteration Nr.   9
 **********************
 DE(Corr)= -0.29097664     E(CORR)=     -2331.7086723     Delta=-4.32D-06
 NORM(A)=   0.10530966D+01
 Iteration Nr.  10
 **********************
 DE(Corr)= -0.29097541     E(CORR)=     -2331.7086711     Delta= 1.23D-06
 NORM(A)=   0.10530977D+01
 Iteration Nr.  11
 **********************
 DE(Corr)= -0.29097673     E(CORR)=     -2331.7086724     Delta=-1.32D-06
 NORM(A)=   0.10530985D+01
 Iteration Nr.  12
 **********************
 DE(Corr)= -0.29097677     E(CORR)=     -2331.7086724     Delta=-3.67D-08
 NORM(A)=   0.10530991D+01
 Iteration Nr.  13
 **********************
 DE(Corr)= -0.29097695     E(CORR)=     -2331.7086726     Delta=-1.86D-07
 NORM(A)=   0.10530994D+01
 Iteration Nr.  14
 **********************
 DE(Corr)= -0.29097701     E(CORR)=     -2331.7086727     Delta=-5.46D-08
 NORM(A)=   0.10530996D+01
 Largest amplitude= 6.30D-02
 Time for triples=       15.00 seconds.
 T4(CCSD)= -0.81630381D-02
 T5(CCSD)=  0.14378349D-02
 CCSD(T)= -0.23317153979D+04

 S**2, projected HF & approx projected MPn energies after annihilation of
 unwanted spin states (see manual for definitions):

 spins       (S**2,0) (S**2,1)    PUHF        PMP2        PMP3        PMP4
 annihilated
 s+1         1.99997  2.00002-2331.420179-2331.698124-2331.701017
 s+1,s+2     2.00000  2.00000-2331.420174-2331.698121-2331.701015
 s+1 to s+3  2.00000  2.00000-2331.420174-2331.698121-2331.701015
 s+1 to s+4  2.00000  2.00000-2331.420174-2331.698121-2331.701015
 s+1 to s+5  2.00000  2.00000-2331.420174
 s+1 to s+6  2.00000  2.00000-2331.420174


 NEF-NEF-NEF-NEF-NEF-NEF-NEF-NEF-NEF-NEF-NEF-NEF-NEF-NEF-NEF-NEF-NEF-NEF-
 NUMERICAL EIGENVECTOR FOLLOWING MINIMUM SEARCH
 SEARCHING FOR MINIMUM ALONG THE LINE
 ITERATION   1 STEP  3
 PARABOLA FITTED THROUGH POINTS:
  ALPHA0=  0.000000 E0= -2331.715421883
  ALPHA1=  1.000000 E1= -2331.715484388
  ALPHA2=  1.300000 E2= -2331.715397857
 ESTIMATED MINIMUM AT ALPHA =  0.615769

 NEF-NEF-NEF-NEF-NEF-NEF-NEF-NEF-NEF-NEF-NEF-NEF-NEF-NEF-NEF-NEF-NEF-NEF-
 ------------------------------------------------------------------------
                         Z-MATRIX (ANGSTROMS AND DEGREES)
 CD Cent Atom  N1     Length/X     N2    Alpha/Y     N3     Beta/Z      J
 ------------------------------------------------------------------------
   1   1  As
   2   2  F     1   1.751115(  1)
 ------------------------------------------------------------------------
                         Z-Matrix orientation:                         
 ---------------------------------------------------------------------
 Center     Atomic     Atomic              Coordinates (Angstroms)
 Number     Number      Type              X           Y           Z
 ---------------------------------------------------------------------
    1         33             0        0.000000    0.000000    0.000000
    2          9             0        0.000000    0.000000    1.751115
 ---------------------------------------------------------------------
 Stoichiometry    AsF(3)
 Framework group  C*V[C*(FAs)]
 Deg. of freedom     1
 Full point group                 C*V     NOp   4
 Largest Abelian subgroup         C2V     NOp   4
 Largest concise Abelian subgroup C1      NOp   1
                         Standard orientation:                         
 ---------------------------------------------------------------------
 Center     Atomic     Atomic              Coordinates (Angstroms)
 Number     Number      Type              X           Y           Z
 ---------------------------------------------------------------------
    1         33             0        0.000000    0.000000    0.375239
    2          9             0        0.000000    0.000000   -1.375876
 ---------------------------------------------------------------------
 Rotational constants (GHZ):      0.0000000     10.8748194     10.8748194
 Standard basis: 6-31G(d) (6D, 7F)
 There are    24 symmetry adapted basis functions of A1  symmetry.
 There are     3 symmetry adapted basis functions of A2  symmetry.
 There are     9 symmetry adapted basis functions of B1  symmetry.
 There are     9 symmetry adapted basis functions of B2  symmetry.
 Integral buffers will be    262144 words long.
 Raffenetti 2 integral format.
 Two-electron integral symmetry is turned on.
    45 basis functions,   111 primitive gaussians,    45 cartesian basis functions
    22 alpha electrons       20 beta electrons
       nuclear repulsion energy        89.7517713175 Hartrees.
 NAtoms=    2 NActive=    2 NUniq=    2 SFac= 1.00D+00 NAtFMM=   60 Big=F
 One-electron integrals computed using PRISM.
 NBasis=    45 RedAO= T  NBF=    24     3     9     9
 NBsUse=    45 1.00D-06 NBFU=    24     3     9     9
 Initial guess read from the read-write file:
 Initial guess orbital symmetries:
 Alpha Orbitals:
       Occupied  (SG) (SG) (PI) (PI) (SG) (SG) (SG) (PI) (PI) (SG)
                 (SG) (PI) (PI) (DLTA) (DLTA) (SG) (SG) (PI) (PI)
                 (SG) (PI) (PI)
       Virtual   (SG) (SG) (PI) (PI) (DLTA) (DLTA) (SG) (PI) (PI)
                 (SG) (SG) (SG) (PI) (PI) (SG) (DLTA) (DLTA) (PI)
                 (PI) (SG) (SG) (SG) (SG)
 Beta  Orbitals:
       Occupied  (SG) (SG) (SG) (PI) (PI) (SG) (SG) (SG) (PI) (PI)
                 (SG) (PI) (PI) (DLTA) (DLTA) (SG) (SG) (PI) (PI)
                 (SG)
       Virtual   (PI) (PI) (SG) (SG) (SG) (PI) (PI) (DLTA) (DLTA)
                 (PI) (PI) (SG) (SG) (SG) (PI) (PI) (SG) (DLTA)
                 (DLTA) (PI) (PI) (SG) (SG) (SG) (SG)
 <S**2> of initial guess= 2.0202
 Harris functional with IExCor=  205 diagonalized for initial guess.
 ExpMin= 1.07D-01 ExpMax= 5.26D+05 ExpMxC= 5.07D+03 IAcc=2 IRadAn=         4 AccDes= 0.00D+00
 HarFok:  IExCor= 205 AccDes= 0.00D+00 IRadAn=         4 IDoV=1
 ScaDFX=  1.000000  1.000000  1.000000  1.000000
 Requested convergence on RMS density matrix=1.00D-08 within 128 cycles.
 Requested convergence on MAX density matrix=1.00D-06.
 Requested convergence on             energy=1.00D-06.
 No special actions if energy rises.
 Keep R1 and R2 integrals in memory in canonical form, NReq=     1574082.
 SCF Done:  E(UHF) =  -2331.41831430     A.U. after   12 cycles
             Convg  =    0.4826D-08             -V/T =  2.0026
             S**2   =   2.0204
 Annihilation of the first spin contaminant:
 S**2 before annihilation     2.0204,   after     2.0000
 Range of M.O.s used for correlation:     1    45
 NBasis=    45 NAE=    22 NBE=    20 NFC=     0 NFV=     0
 NROrb=     45 NOA=    22 NOB=    20 NVA=    23 NVB=    25

 **** Warning!!: The largest alpha MO coefficient is  0.19547665D+02


 **** Warning!!: The largest beta MO coefficient is  0.19547628D+02

 Estimate disk for full transformation     3797851 words.
 Spin components of T(2) and E(2):
     alpha-alpha T2 =       0.1213650286D-01 E2=     -0.4260243328D-01
     alpha-beta  T2 =       0.5608816859D-01 E2=     -0.1996271260D+00
     beta-beta   T2 =       0.9128518785D-02 E2=     -0.3603061825D-01
 ANorm=    0.1037956256D+01
 E2=       -0.2782601775D+00 EUMP2=       -0.23316965744747D+04
 (S**2,0)=  0.20204D+01           (S**2,1)=  0.20083D+01
 E(PUHF)=      -0.23314208137D+04        E(PMP2)=      -0.23316983362D+04
 Iterations=  50 Convergence= 0.100D-06
 Iteration Nr.   1
 **********************
 E(PMP3)=      -0.23317013076D+04
 MP4(R+Q)=  0.22639430D-02
 E3=       -0.36551336D-02        EUMP3=      -0.23317002296D+04
 E4(DQ)=   -0.44106194D-02        UMP4(DQ)=   -0.23317046402D+04
 E4(SDQ)=  -0.94844174D-02        UMP4(SDQ)=  -0.23317097140D+04
 DE(Corr)= -0.27917163     E(CORR)=     -2331.6974859    
 NORM(A)=   0.10437076D+01
 Iteration Nr.   2
 **********************
 DE(Corr)= -0.28874811     E(CORR)=     -2331.7070624     Delta=-9.58D-03
 NORM(A)=   0.10487631D+01
 Iteration Nr.   3
 **********************
 DE(Corr)= -0.28898003     E(CORR)=     -2331.7072943     Delta=-2.32D-04
 NORM(A)=   0.10513056D+01
 Iteration Nr.   4
 **********************
 DE(Corr)= -0.29034586     E(CORR)=     -2331.7086602     Delta=-1.37D-03
 NORM(A)=   0.10522789D+01
 Iteration Nr.   5
 **********************
 DE(Corr)= -0.29051029     E(CORR)=     -2331.7088246     Delta=-1.64D-04
 NORM(A)=   0.10526282D+01
 Iteration Nr.   6
 **********************
 DE(Corr)= -0.29055016     E(CORR)=     -2331.7088645     Delta=-3.99D-05
 NORM(A)=   0.10526850D+01
 Iteration Nr.   7
 **********************
 DE(Corr)= -0.29055636     E(CORR)=     -2331.7088707     Delta=-6.20D-06
 NORM(A)=   0.10526967D+01
 Iteration Nr.   8
 **********************
 DE(Corr)= -0.29055265     E(CORR)=     -2331.7088669     Delta= 3.71D-06
 NORM(A)=   0.10526983D+01
 Iteration Nr.   9
 **********************
 DE(Corr)= -0.29055679     E(CORR)=     -2331.7088711     Delta=-4.14D-06
 NORM(A)=   0.10526989D+01
 Iteration Nr.  10
 **********************
 DE(Corr)= -0.29055564     E(CORR)=     -2331.7088699     Delta= 1.16D-06
 NORM(A)=   0.10526999D+01
 Iteration Nr.  11
 **********************
 DE(Corr)= -0.29055688     E(CORR)=     -2331.7088712     Delta=-1.24D-06
 NORM(A)=   0.10527007D+01
 Iteration Nr.  12
 **********************
 DE(Corr)= -0.29055692     E(CORR)=     -2331.7088712     Delta=-3.82D-08
 NORM(A)=   0.10527013D+01
 Iteration Nr.  13
 **********************
 DE(Corr)= -0.29055709     E(CORR)=     -2331.7088714     Delta=-1.71D-07
 NORM(A)=   0.10527015D+01
 Iteration Nr.  14
 **********************
 DE(Corr)= -0.29055714     E(CORR)=     -2331.7088714     Delta=-5.06D-08
 NORM(A)=   0.10527017D+01
 Largest amplitude= 6.16D-02
 Time for triples=       15.00 seconds.
 T4(CCSD)= -0.80543338D-02
 T5(CCSD)=  0.13997286D-02
 CCSD(T)= -0.23317155260D+04

 S**2, projected HF & approx projected MPn energies after annihilation of
 unwanted spin states (see manual for definitions):

 spins       (S**2,0) (S**2,1)    PUHF        PMP2        PMP3        PMP4
 annihilated
 s+1         1.99997  2.00002-2331.420814-2331.698336-2331.701308
 s+1,s+2     2.00000  2.00000-2331.420809-2331.698333-2331.701305
 s+1 to s+3  2.00000  2.00000-2331.420809-2331.698333-2331.701305
 s+1 to s+4  2.00000  2.00000-2331.420809-2331.698333-2331.701305
 s+1 to s+5  2.00000  2.00000-2331.420809
 s+1 to s+6  2.00000  2.00000-2331.420809


 NEF-NEF-NEF-NEF-NEF-NEF-NEF-NEF-NEF-NEF-NEF-NEF-NEF-NEF-NEF-NEF-NEF-NEF-
 NUMERICAL EIGENVECTOR FOLLOWING MINIMUM SEARCH
 SEARCHING FOR MINIMUM ALONG THE LINE
 ITERATION   1 STEP  4
 LINE SEARCH TERMINATING
 NUMERICALLY ESTIMATING GRADIENTS
 ITERATION   1 VARIABLE  1 STEP  1

 NEF-NEF-NEF-NEF-NEF-NEF-NEF-NEF-NEF-NEF-NEF-NEF-NEF-NEF-NEF-NEF-NEF-NEF-
 ------------------------------------------------------------------------
                         Z-MATRIX (ANGSTROMS AND DEGREES)
 CD Cent Atom  N1     Length/X     N2    Alpha/Y     N3     Beta/Z      J
 ------------------------------------------------------------------------
   1   1  As
   2   2  F     1   1.751184(  1)
 ------------------------------------------------------------------------
                         Z-Matrix orientation:                         
 ---------------------------------------------------------------------
 Center     Atomic     Atomic              Coordinates (Angstroms)
 Number     Number      Type              X           Y           Z
 ---------------------------------------------------------------------
    1         33             0        0.000000    0.000000    0.000000
    2          9             0        0.000000    0.000000    1.751184
 ---------------------------------------------------------------------
 Stoichiometry    AsF(3)
 Framework group  C*V[C*(FAs)]
 Deg. of freedom     1
 Full point group                 C*V     NOp   4
 Largest Abelian subgroup         C2V     NOp   4
 Largest concise Abelian subgroup C1      NOp   1
                         Standard orientation:                         
 ---------------------------------------------------------------------
 Center     Atomic     Atomic              Coordinates (Angstroms)
 Number     Number      Type              X           Y           Z
 ---------------------------------------------------------------------
    1         33             0        0.000000    0.000000    0.375254
    2          9             0        0.000000    0.000000   -1.375930
 ---------------------------------------------------------------------
 Rotational constants (GHZ):      0.0000000     10.8739535     10.8739535
 Standard basis: 6-31G(d) (6D, 7F)
 There are    24 symmetry adapted basis functions of A1  symmetry.
 There are     3 symmetry adapted basis functions of A2  symmetry.
 There are     9 symmetry adapted basis functions of B1  symmetry.
 There are     9 symmetry adapted basis functions of B2  symmetry.
 Integral buffers will be    262144 words long.
 Raffenetti 2 integral format.
 Two-electron integral symmetry is turned on.
    45 basis functions,   111 primitive gaussians,    45 cartesian basis functions
    22 alpha electrons       20 beta electrons
       nuclear repulsion energy        89.7481983314 Hartrees.
 NAtoms=    2 NActive=    2 NUniq=    2 SFac= 1.00D+00 NAtFMM=   60 Big=F
 One-electron integrals computed using PRISM.
 NBasis=    45 RedAO= T  NBF=    24     3     9     9
 NBsUse=    45 1.00D-06 NBFU=    24     3     9     9
 Initial guess read from the read-write file:
 Initial guess orbital symmetries:
 Alpha Orbitals:
       Occupied  (SG) (SG) (PI) (PI) (SG) (SG) (SG) (PI) (PI) (SG)
                 (SG) (PI) (PI) (DLTA) (DLTA) (SG) (SG) (PI) (PI)
                 (SG) (PI) (PI)
       Virtual   (SG) (SG) (PI) (PI) (DLTA) (DLTA) (SG) (PI) (PI)
                 (SG) (SG) (SG) (PI) (PI) (SG) (DLTA) (DLTA) (PI)
                 (PI) (SG) (SG) (SG) (SG)
 Beta  Orbitals:
       Occupied  (SG) (SG) (SG) (PI) (PI) (SG) (SG) (SG) (PI) (PI)
                 (SG) (PI) (PI) (DLTA) (DLTA) (SG) (SG) (PI) (PI)
                 (SG)
       Virtual   (PI) (PI) (SG) (SG) (PI) (PI) (SG) (DLTA) (DLTA)
                 (PI) (PI) (SG) (SG) (SG) (PI) (PI) (SG) (DLTA)
                 (DLTA) (PI) (PI) (SG) (SG) (SG) (SG)
 <S**2> of initial guess= 2.0204
 Harris functional with IExCor=  205 diagonalized for initial guess.
 ExpMin= 1.07D-01 ExpMax= 5.26D+05 ExpMxC= 5.07D+03 IAcc=2 IRadAn=         4 AccDes= 0.00D+00
 HarFok:  IExCor= 205 AccDes= 0.00D+00 IRadAn=         4 IDoV=1
 ScaDFX=  1.000000  1.000000  1.000000  1.000000
 Requested convergence on RMS density matrix=1.00D-08 within 128 cycles.
 Requested convergence on MAX density matrix=1.00D-06.
 Requested convergence on             energy=1.00D-06.
 No special actions if energy rises.
 Keep R1 and R2 integrals in memory in canonical form, NReq=     1574082.
 SCF Done:  E(UHF) =  -2331.41831202     A.U. after    7 cycles
             Convg  =    0.4663D-08             -V/T =  2.0026
             S**2   =   2.0204
 Annihilation of the first spin contaminant:
 S**2 before annihilation     2.0204,   after     2.0000
 Range of M.O.s used for correlation:     1    45
 NBasis=    45 NAE=    22 NBE=    20 NFC=     0 NFV=     0
 NROrb=     45 NOA=    22 NOB=    20 NVA=    23 NVB=    25

 **** Warning!!: The largest alpha MO coefficient is  0.19547659D+02


 **** Warning!!: The largest beta MO coefficient is  0.19547622D+02

 Estimate disk for full transformation     3797851 words.
 Spin components of T(2) and E(2):
     alpha-alpha T2 =       0.1213672563D-01 E2=     -0.4260269615D-01
     alpha-beta  T2 =       0.5608962273D-01 E2=     -0.1996287752D+00
     beta-beta   T2 =       0.9128640003D-02 E2=     -0.3603064568D-01
 ANorm=    0.1037957123D+01
 E2=       -0.2782621170D+00 EUMP2=       -0.23316965741370D+04
 (S**2,0)=  0.20204D+01           (S**2,1)=  0.20083D+01
 E(PUHF)=      -0.23314208114D+04        E(PMP2)=      -0.23316983359D+04
 Iterations=  50 Convergence= 0.100D-06
 Iteration Nr.   1
 **********************
 E(PMP3)=      -0.23317013068D+04
 MP4(R+Q)=  0.22640595D-02
 E3=       -0.36547496D-02        EUMP3=      -0.23317002289D+04
 E4(DQ)=   -0.44107908D-02        UMP4(DQ)=   -0.23317046397D+04
 E4(SDQ)=  -0.94849691D-02        UMP4(SDQ)=  -0.23317097139D+04
 DE(Corr)= -0.27917301     E(CORR)=     -2331.6974850    
 NORM(A)=   0.10437086D+01
 Iteration Nr.   2
 **********************
 DE(Corr)= -0.28875006     E(CORR)=     -2331.7070621     Delta=-9.58D-03
 NORM(A)=   0.10487643D+01
 Iteration Nr.   3
 **********************
 DE(Corr)= -0.28898178     E(CORR)=     -2331.7072938     Delta=-2.32D-04
 NORM(A)=   0.10513072D+01
 Iteration Nr.   4
 **********************
 DE(Corr)= -0.29034777     E(CORR)=     -2331.7086598     Delta=-1.37D-03
 NORM(A)=   0.10522806D+01
 Iteration Nr.   5
 **********************
 DE(Corr)= -0.29051222     E(CORR)=     -2331.7088242     Delta=-1.64D-04
 NORM(A)=   0.10526300D+01
 Iteration Nr.   6
 **********************
 DE(Corr)= -0.29055210     E(CORR)=     -2331.7088641     Delta=-3.99D-05
 NORM(A)=   0.10526868D+01
 Iteration Nr.   7
 **********************
 DE(Corr)= -0.29055830     E(CORR)=     -2331.7088703     Delta=-6.20D-06
 NORM(A)=   0.10526985D+01
 Iteration Nr.   8
 **********************
 DE(Corr)= -0.29055458     E(CORR)=     -2331.7088666     Delta= 3.72D-06
 NORM(A)=   0.10527001D+01
 Iteration Nr.   9
 **********************
 DE(Corr)= -0.29055873     E(CORR)=     -2331.7088707     Delta=-4.15D-06
 NORM(A)=   0.10527007D+01
 Iteration Nr.  10
 **********************
 DE(Corr)= -0.29055757     E(CORR)=     -2331.7088696     Delta= 1.16D-06
 NORM(A)=   0.10527018D+01
 Iteration Nr.  11
 **********************
 DE(Corr)= -0.29055881     E(CORR)=     -2331.7088708     Delta=-1.24D-06
 NORM(A)=   0.10527025D+01
 Iteration Nr.  12
 **********************
 DE(Corr)= -0.29055885     E(CORR)=     -2331.7088709     Delta=-3.82D-08
 NORM(A)=   0.10527031D+01
 Iteration Nr.  13
 **********************
 DE(Corr)= -0.29055902     E(CORR)=     -2331.7088710     Delta=-1.71D-07
 NORM(A)=   0.10527033D+01
 Iteration Nr.  14
 **********************
 DE(Corr)= -0.29055907     E(CORR)=     -2331.7088711     Delta=-5.07D-08
 NORM(A)=   0.10527035D+01
 Largest amplitude= 6.16D-02
 Time for triples=       15.00 seconds.
 T4(CCSD)= -0.80548275D-02
 T5(CCSD)=  0.13999013D-02
 CCSD(T)= -0.23317155260D+04

 S**2, projected HF & approx projected MPn energies after annihilation of
 unwanted spin states (see manual for definitions):

 spins       (S**2,0) (S**2,1)    PUHF        PMP2        PMP3        PMP4
 annihilated
 s+1         1.99997  2.00002-2331.420811-2331.698336-2331.701307
 s+1,s+2     2.00000  2.00000-2331.420807-2331.698332-2331.701304
 s+1 to s+3  2.00000  2.00000-2331.420807-2331.698332-2331.701304
 s+1 to s+4  2.00000  2.00000-2331.420807-2331.698332-2331.701304
 s+1 to s+5  2.00000  2.00000-2331.420807
 s+1 to s+6  2.00000  2.00000-2331.420807


 NEF-NEF-NEF-NEF-NEF-NEF-NEF-NEF-NEF-NEF-NEF-NEF-NEF-NEF-NEF-NEF-NEF-NEF-
 NUMERICAL EIGENVECTOR FOLLOWING MINIMUM SEARCH
 GRADIENT ESTIMATION COMPLETE
 Hessian updated using Powell update
 ITERATION   2
 HESSIAN EIGENVECTORS AND EIGENVALUES
                           1
     EIGENVALUES --     0.32245
       1  r             1.00000
 MINIMUM SEARCH. TAKING SIMPLE RFO STEP
 SEARCHING FOR LAMDA THAT MINIMIZES ALONG ALL MODES
 VALUE TAKEN    LAMDA=  -0.00000006
 STEP TAKEN. STEPSIZE IS  0.000443
 CURRENT PARAMETER VALUES (INTERNAL COORDINATES)
    I        X         GRADIENT    DISPLACEMENT       NEWX
    1    3.309127      0.000143     -0.000443      3.308684
         ITEM               VALUE     THRESHOLD  CONVERGED?
 MAXIMUM FORCE            0.000143     0.000450     YES
 RMS     FORCE            0.000143     0.000300     YES
 MAXIMUM DISPLACEMENT     0.000443     0.001800     YES
 RMS     DISPLACEMENT     0.000443     0.001200     YES


 *************************************************
 **  CONVERGENCE CRITERIA APPARENTLY SATISFIED  **
 *************************************************


                       ----------------------------
                       !   Optimized Parameters   !
                       ! (Angstroms and Degrees)  !
 ----------------------                            ----------------------
 !      Name          Value   Derivative information (Atomic Units)     !
 ------------------------------------------------------------------------
 !        r          1.7511   -DE/DX =    0.0001                        !
 ------------------------------------------------------------------------
 PREDICTED CHANGE IN ENERGY   0.000000

 NEF-NEF-NEF-NEF-NEF-NEF-NEF-NEF-NEF-NEF-NEF-NEF-NEF-NEF-NEF-NEF-NEF-NEF-
 ------------------------------------------------------------------------
                         Z-MATRIX (ANGSTROMS AND DEGREES)
 CD Cent Atom  N1     Length/X     N2    Alpha/Y     N3     Beta/Z      J
 ------------------------------------------------------------------------
   1   1  As
   2   2  F     1   1.751115(  1)
 ------------------------------------------------------------------------
                         Z-Matrix orientation:                         
 ---------------------------------------------------------------------
 Center     Atomic     Atomic              Coordinates (Angstroms)
 Number     Number      Type              X           Y           Z
 ---------------------------------------------------------------------
    1         33             0        0.000000    0.000000    0.000000
    2          9             0        0.000000    0.000000    1.751115
 ---------------------------------------------------------------------
 Stoichiometry    AsF(3)
 Framework group  C*V[C*(FAs)]
 Deg. of freedom     1
 Full point group                 C*V     NOp   4
 Largest Abelian subgroup         C2V     NOp   4
 Largest concise Abelian subgroup C1      NOp   1
                         Standard orientation:                         
 ---------------------------------------------------------------------
 Center     Atomic     Atomic              Coordinates (Angstroms)
 Number     Number      Type              X           Y           Z
 ---------------------------------------------------------------------
    1         33             0        0.000000    0.000000    0.375239
    2          9             0        0.000000    0.000000   -1.375876
 ---------------------------------------------------------------------
 Rotational constants (GHZ):      0.0000000     10.8748194     10.8748194

 **********************************************************************

            Population analysis using the SCF density.

 **********************************************************************

 Orbital symmetries:
 Alpha Orbitals:
       Occupied  (SG) (SG) (PI) (PI) (SG) (SG) (SG) (PI) (PI) (SG)
                 (SG) (PI) (PI) (DLTA) (DLTA) (SG) (SG) (PI) (PI)
                 (SG) (PI) (PI)
       Virtual   (SG) (SG) (PI) (PI) (DLTA) (DLTA) (SG) (PI) (PI)
                 (SG) (SG) (SG) (PI) (PI) (SG) (DLTA) (DLTA) (PI)
                 (PI) (SG) (SG) (SG) (SG)
 Beta  Orbitals:
       Occupied  (SG) (SG) (SG) (PI) (PI) (SG) (SG) (SG) (PI) (PI)
                 (SG) (PI) (PI) (DLTA) (DLTA) (SG) (SG) (PI) (PI)
                 (SG)
       Virtual   (PI) (PI) (SG) (SG) (PI) (PI) (SG) (DLTA) (DLTA)
                 (PI) (PI) (SG) (SG) (SG) (PI) (PI) (SG) (DLTA)
                 (DLTA) (PI) (PI) (SG) (SG) (SG) (SG)
 The electronic state is 3-SG.
 Alpha  occ. eigenvalues -- -432.54039 -55.69744 -50.21638 -50.21638 -50.21450
 Alpha  occ. eigenvalues --  -26.27695  -7.97626  -5.93900  -5.93900  -5.93209
 Alpha  occ. eigenvalues --   -2.16833  -2.16415  -2.16415  -2.16273  -2.16273
 Alpha  occ. eigenvalues --   -1.55494  -0.82932  -0.64973  -0.64973  -0.58702
 Alpha  occ. eigenvalues --   -0.36430  -0.36430
 Alpha virt. eigenvalues --    0.10436   0.28392   0.49611   0.49611   0.50126
 Alpha virt. eigenvalues --    0.50126   0.56274   0.58984   0.58984   0.77443
 Alpha virt. eigenvalues --    1.39753   1.48433   1.60424   1.60424   1.96294
 Alpha virt. eigenvalues --    2.15687   2.15687   2.24947   2.24947   2.70304
 Alpha virt. eigenvalues --    4.43509   7.52243  58.69415
  Beta  occ. eigenvalues -- -432.53512 -55.69468 -50.21322 -50.20844 -50.20844
  Beta  occ. eigenvalues --  -26.26964  -7.96554  -5.93084  -5.91847  -5.91847
  Beta  occ. eigenvalues --   -2.16365  -2.15795  -2.15795  -2.15048  -2.15048
  Beta  occ. eigenvalues --   -1.53555  -0.72973  -0.61082  -0.61082  -0.50833
  Beta virt. eigenvalues --    0.04842   0.04842   0.14548   0.31185   0.57340
  Beta virt. eigenvalues --    0.57340   0.57396   0.63375   0.63375   0.65777
  Beta virt. eigenvalues --    0.65777   0.81730   1.42579   1.49008   1.62092
  Beta virt. eigenvalues --    1.62092   1.96536   2.16239   2.16239   2.25836
  Beta virt. eigenvalues --    2.25836   2.71733   4.44109   7.53746  58.70262
          Condensed to atoms (all electrons):
              1          2
     1  As  32.331849   0.144773
     2  F    0.144773   9.378606
 Mulliken atomic charges:
              1
     1  As   0.523379
     2  F   -0.523379
 Sum of Mulliken charges=   0.00000
 Atomic charges with hydrogens summed into heavy atoms:
              1
     1  As   0.523379
     2  F   -0.523379
 Sum of Mulliken charges=   0.00000
          Atomic-Atomic Spin Densities.
              1          2
     1  As   2.025291  -0.075949
     2  F   -0.075949   0.126607
 Mulliken atomic spin densities:
              1
     1  As   1.949342
     2  F    0.050658
 Sum of Mulliken spin densities=   2.00000
 Electronic spatial extent (au):  <R**2>=   128.1898
 Charge=     0.0000 electrons
 Dipole moment (field-independent basis, Debye):
    X=     0.0000    Y=     0.0000    Z=     2.0306  Tot=     2.0306
 Quadrupole moment (field-independent basis, Debye-Ang):
   XX=   -22.0387   YY=   -22.0387   ZZ=   -24.1902
   XY=     0.0000   XZ=     0.0000   YZ=     0.0000
 Traceless Quadrupole moment (field-independent basis, Debye-Ang):
   XX=     0.7172   YY=     0.7172   ZZ=    -1.4343
   XY=     0.0000   XZ=     0.0000   YZ=     0.0000
 Octapole moment (field-independent basis, Debye-Ang**2):
  XXX=     0.0000  YYY=     0.0000  ZZZ=     5.9623  XYY=     0.0000
  XXY=     0.0000  XXZ=    -0.4958  XZZ=     0.0000  YZZ=     0.0000
  YYZ=    -0.4958  XYZ=     0.0000
 Hexadecapole moment (field-independent basis, Debye-Ang**3):
 XXXX=   -26.1793 YYYY=   -26.1793 ZZZZ=   -94.3085 XXXY=     0.0000
 XXXZ=     0.0000 YYYX=     0.0000 YYYZ=     0.0000 ZZZX=     0.0000
 ZZZY=     0.0000 XXYY=    -8.7264 XXZZ=   -19.9088 YYZZ=   -19.9088
 XXYZ=     0.0000 YYXZ=     0.0000 ZZXY=     0.0000
 N-N= 8.975177131753D+01 E-N=-5.755314810679D+03  KE= 2.325390257199D+03
 Symmetry A1   KE= 1.705915789086D+03
 Symmetry A2   KE= 3.424928984727D+01
[...]
 annihilated
 s+1         1.99997  2.00002-2331.420814-2331.698336-2331.701308
 s+1,s+2     2.00000  2.00000-2331.420809-2331.698333-2331.701305
 s+1 to s+3  2.00000  2.00000-2331.420809-2331.698333-2331.701305
 s+1 to s+4  2.00000  2.00000-2331.420809-2331.698333-2331.701305
 s+1 to s+5  2.00000  2.00000-2331.420809
 s+1 to s+6  2.00000  2.00000-2331.420809


 **********************************************************************

            Population analysis using the SCF density.

 **********************************************************************

 Alpha  occ. eigenvalues -- -432.54038 -55.69743 -50.21638 -50.21638 -50.21449
 Alpha  occ. eigenvalues --  -26.27696  -7.97625  -5.93900  -5.93900  -5.93208
 Alpha  occ. eigenvalues --   -2.16833  -2.16414  -2.16414  -2.16272  -2.16272
 Alpha  occ. eigenvalues --   -1.55497  -0.82933  -0.64976  -0.64976  -0.58703
 Alpha  occ. eigenvalues --   -0.36429  -0.36429
 Alpha virt. eigenvalues --    0.10437   0.28393   0.49612   0.49612   0.50126
 Alpha virt. eigenvalues --    0.50126   0.56275   0.58986   0.58986   0.77445
 Alpha virt. eigenvalues --    1.39753   1.48434   1.60423   1.60423   1.96294
 Alpha virt. eigenvalues --    2.15685   2.15685   2.24947   2.24947   2.70311
 Alpha virt. eigenvalues --    4.43516   7.52245  58.69424
  Beta  occ. eigenvalues -- -432.53512 -55.69467 -50.21322 -50.20844 -50.20844
  Beta  occ. eigenvalues --  -26.26966  -7.96553  -5.93083  -5.91847  -5.91847
  Beta  occ. eigenvalues --   -2.16365  -2.15795  -2.15795  -2.15047  -2.15047
  Beta  occ. eigenvalues --   -1.53558  -0.72975  -0.61084  -0.61084  -0.50832
  Beta virt. eigenvalues --    0.04843   0.04843   0.14550   0.31185   0.57340
  Beta virt. eigenvalues --    0.57340   0.57397   0.63375   0.63375   0.65778
  Beta virt. eigenvalues --    0.65778   0.81732   1.42579   1.49009   1.62092
  Beta virt. eigenvalues --    1.62092   1.96536   2.16238   2.16238   2.25836
  Beta virt. eigenvalues --    2.25836   2.71740   4.44116   7.53748  58.70270
          Condensed to atoms (all electrons):
              1          2
     1  As  32.331864   0.144763
     2  F    0.144763   9.378610
 Mulliken atomic charges:
              1
     1  As   0.523373
     2  F   -0.523373
 Sum of Mulliken charges=   0.00000
 Atomic charges with hydrogens summed into heavy atoms:
              1
     1  As   0.523373
     2  F   -0.523373
 Sum of Mulliken charges=   0.00000
          Atomic-Atomic Spin Densities.
              1          2
     1  As   2.025297  -0.075965
     2  F   -0.075965   0.126633
 Mulliken atomic spin densities:
              1
     1  As   1.949332
     2  F    0.050668
 Sum of Mulliken spin densities=   2.00000
 Electronic spatial extent (au):  <R**2>=   128.1682
 Charge=     0.0000 electrons
 Dipole moment (field-independent basis, Debye):
    X=     0.0000    Y=     0.0000    Z=     2.0302  Tot=     2.0302
 Quadrupole moment (field-independent basis, Debye-Ang):
   XX=   -22.0388   YY=   -22.0388   ZZ=   -24.1409
   XY=     0.0000   XZ=     0.0000   YZ=     0.0000
 Traceless Quadrupole moment (field-independent basis, Debye-Ang):
   XX=     0.7007   YY=     0.7007   ZZ=    -1.4014
   XY=     0.0000   XZ=     0.0000   YZ=     0.0000
 Octapole moment (field-independent basis, Debye-Ang**2):
  XXX=     0.0000  YYY=     0.0000  ZZZ=     5.2237  XYY=     0.0000
  XXY=     0.0000  XXZ=    -0.7164  XZZ=     0.0000  YZZ=     0.0000
  YYZ=    -0.7164  XYZ=     0.0000
 Hexadecapole moment (field-independent basis, Debye-Ang**3):
 XXXX=   -26.1796 YYYY=   -26.1796 ZZZZ=   -94.0531 XXXY=     0.0000
 XXXZ=     0.0000 YYYX=     0.0000 YYYZ=     0.0000 ZZZX=     0.0000
 ZZZY=     0.0000 XXYY=    -8.7265 XXZZ=   -19.9200 YYZZ=   -19.9200
 XXYZ=     0.0000 YYXZ=     0.0000 ZZXY=     0.0000
 N-N= 8.975177131753D+01 E-N=-5.755322028969D+03  KE= 2.325390351975D+03
 Leave EnFreq:  IXYZ= 6 JXYZ= 3 IStep= 2.
 Standard basis: 6-31G(d) (6D, 7F)
 Integral buffers will be    262144 words long.
 Raffenetti 2 integral format.
 Two-electron integral symmetry is turned off.
    45 basis functions,   111 primitive gaussians,    45 cartesian basis functions
    22 alpha electrons       20 beta electrons
       nuclear repulsion energy        89.7517713175 Hartrees.
 NAtoms=    2 NActive=    2 NUniq=    2 SFac= 1.00D+00 NAtFMM=   60 Big=F
 One-electron integrals computed using PRISM.
 NBasis=    45 RedAO= T  NBF=    45
 NBsUse=    45 1.00D-06 NBFU=    45
 Initial guess read from the read-write file:
 <S**2> of initial guess= 2.0204
 Requested convergence on RMS density matrix=1.00D-08 within 128 cycles.
 Requested convergence on MAX density matrix=1.00D-06.
 Requested convergence on             energy=1.00D-06.
 No special actions if energy rises.
 Keep R1 and R2 integrals in memory in canonical form, NReq=     1574027.
 SCF Done:  E(UHF) =  -2331.41831430     A.U. after    1 cycles
             Convg  =    0.9494D-10             -V/T =  2.0026
             S**2   =   2.0204
 Annihilation of the first spin contaminant:
 S**2 before annihilation     2.0204,   after     2.0000
 Range of M.O.s used for correlation:     1    45
 NBasis=    45 NAE=    22 NBE=    20 NFC=     0 NFV=     0
 NROrb=     45 NOA=    22 NOB=    20 NVA=    23 NVB=    25

 **** Warning!!: The largest alpha MO coefficient is  0.19547665D+02


 **** Warning!!: The largest beta MO coefficient is  0.19547628D+02

 Estimate disk for full transformation     5528632 words.
 Spin components of T(2) and E(2):
     alpha-alpha T2 =       0.1213650291D-01 E2=     -0.4260243335D-01
     alpha-beta  T2 =       0.5608816823D-01 E2=     -0.1996271253D+00
     beta-beta   T2 =       0.9128518697D-02 E2=     -0.3603061810D-01
 ANorm=    0.1037956256D+01
 E2=       -0.2782601768D+00 EUMP2=       -0.23316965744739D+04
 (S**2,0)=  0.20204D+01           (S**2,1)=  0.20083D+01
 E(PUHF)=      -0.23314208137D+04        E(PMP2)=      -0.23316983362D+04
 Iterations=  50 Convergence= 0.100D-06
 Iteration Nr.   1
 **********************
 E(PMP3)=      -0.23317013076D+04
 MP4(R+Q)=  0.22639430D-02
 E3=       -0.36551337D-02        EUMP3=      -0.23317002296D+04
 E4(DQ)=   -0.44106194D-02        UMP4(DQ)=   -0.23317046402D+04
 E4(SDQ)=  -0.94844174D-02        UMP4(SDQ)=  -0.23317097140D+04
 DE(Corr)= -0.27917163     E(CORR)=     -2331.6974859    
 NORM(A)=   0.10437076D+01
 Iteration Nr.   2
 **********************
 DE(Corr)= -0.28874811     E(CORR)=     -2331.7070624     Delta=-9.58D-03
 NORM(A)=   0.10487631D+01
 Iteration Nr.   3
 **********************
 DE(Corr)= -0.28898002     E(CORR)=     -2331.7072943     Delta=-2.32D-04
 NORM(A)=   0.10513056D+01
 Iteration Nr.   4
 **********************
 DE(Corr)= -0.29034586     E(CORR)=     -2331.7086602     Delta=-1.37D-03
 NORM(A)=   0.10522789D+01
 Iteration Nr.   5
 **********************
 DE(Corr)= -0.29051029     E(CORR)=     -2331.7088246     Delta=-1.64D-04
 NORM(A)=   0.10526282D+01
 Iteration Nr.   6
 **********************
 DE(Corr)= -0.29055016     E(CORR)=     -2331.7088645     Delta=-3.99D-05
 NORM(A)=   0.10526850D+01
 Iteration Nr.   7
 **********************
 DE(Corr)= -0.29055636     E(CORR)=     -2331.7088707     Delta=-6.20D-06
 NORM(A)=   0.10526967D+01
 Iteration Nr.   8
 **********************
 DE(Corr)= -0.29055265     E(CORR)=     -2331.7088669     Delta= 3.71D-06
 NORM(A)=   0.10526983D+01
 Iteration Nr.   9
 **********************
 DE(Corr)= -0.29055679     E(CORR)=     -2331.7088711     Delta=-4.14D-06
 NORM(A)=   0.10526989D+01
 Iteration Nr.  10
 **********************
 DE(Corr)= -0.29055564     E(CORR)=     -2331.7088699     Delta= 1.16D-06
 NORM(A)=   0.10526999D+01
 Iteration Nr.  11
 **********************
 DE(Corr)= -0.29055688     E(CORR)=     -2331.7088712     Delta=-1.24D-06
 NORM(A)=   0.10527007D+01
 Iteration Nr.  12
 **********************
 DE(Corr)= -0.29055692     E(CORR)=     -2331.7088712     Delta=-3.82D-08
 NORM(A)=   0.10527013D+01
 Iteration Nr.  13
 **********************
 DE(Corr)= -0.29055709     E(CORR)=     -2331.7088714     Delta=-1.71D-07
 NORM(A)=   0.10527015D+01
 Iteration Nr.  14
 **********************
 DE(Corr)= -0.29055714     E(CORR)=     -2331.7088714     Delta=-5.06D-08
 NORM(A)=   0.10527017D+01
 Largest amplitude= 6.16D-02
 Time for triples=      124.00 seconds.
 T4(CCSD)= -0.80543337D-02
 T5(CCSD)=  0.13997285D-02
 CCSD(T)= -0.23317155260D+04

 S**2, projected HF & approx projected MPn energies after annihilation of
 unwanted spin states (see manual for definitions):

 spins       (S**2,0) (S**2,1)    PUHF        PMP2        PMP3        PMP4
 annihilated
 s+1         1.99997  2.00002-2331.420814-2331.698336-2331.701308
 s+1,s+2     2.00000  2.00000-2331.420809-2331.698333-2331.701305
 s+1 to s+3  2.00000  2.00000-2331.420809-2331.698333-2331.701305
 s+1 to s+4  2.00000  2.00000-2331.420809-2331.698333-2331.701305
 s+1 to s+5  2.00000  2.00000-2331.420809
 s+1 to s+6  2.00000  2.00000-2331.420809


 **********************************************************************

            Population analysis using the SCF density.

 **********************************************************************

 Alpha  occ. eigenvalues -- -432.54038 -55.69743 -50.21638 -50.21638 -50.21449
 Alpha  occ. eigenvalues --  -26.27696  -7.97625  -5.93900  -5.93900  -5.93208
 Alpha  occ. eigenvalues --   -2.16833  -2.16414  -2.16414  -2.16272  -2.16272
 Alpha  occ. eigenvalues --   -1.55497  -0.82933  -0.64976  -0.64976  -0.58703
 Alpha  occ. eigenvalues --   -0.36429  -0.36429
 Alpha virt. eigenvalues --    0.10437   0.28393   0.49612   0.49612   0.50126
 Alpha virt. eigenvalues --    0.50126   0.56275   0.58986   0.58986   0.77445
 Alpha virt. eigenvalues --    1.39753   1.48434   1.60423   1.60423   1.96294
 Alpha virt. eigenvalues --    2.15685   2.15685   2.24947   2.24947   2.70311
 Alpha virt. eigenvalues --    4.43516   7.52245  58.69424
  Beta  occ. eigenvalues -- -432.53512 -55.69467 -50.21322 -50.20844 -50.20844
  Beta  occ. eigenvalues --  -26.26966  -7.96553  -5.93083  -5.91847  -5.91847
  Beta  occ. eigenvalues --   -2.16365  -2.15795  -2.15795  -2.15047  -2.15047
  Beta  occ. eigenvalues --   -1.53558  -0.72975  -0.61084  -0.61084  -0.50832
  Beta virt. eigenvalues --    0.04843   0.04843   0.14550   0.31185   0.57340
  Beta virt. eigenvalues --    0.57340   0.57397   0.63375   0.63375   0.65778
  Beta virt. eigenvalues --    0.65778   0.81732   1.42579   1.49009   1.62092
  Beta virt. eigenvalues --    1.62092   1.96536   2.16238   2.16238   2.25836
  Beta virt. eigenvalues --    2.25836   2.71740   4.44116   7.53748  58.70270
          Condensed to atoms (all electrons):
              1          2
     1  As  32.331864   0.144763
     2  F    0.144763   9.378610
 Mulliken atomic charges:
              1
     1  As   0.523373
     2  F   -0.523373
 Sum of Mulliken charges=   0.00000
 Atomic charges with hydrogens summed into heavy atoms:
              1
     1  As   0.523373
     2  F   -0.523373
 Sum of Mulliken charges=   0.00000
          Atomic-Atomic Spin Densities.
              1          2
     1  As   2.025297  -0.075965
     2  F   -0.075965   0.126633
 Mulliken atomic spin densities:
              1
     1  As   1.949332
     2  F    0.050668
 Sum of Mulliken spin densities=   2.00000
 Electronic spatial extent (au):  <R**2>=   128.2286
 Charge=     0.0000 electrons
 Dipole moment (field-independent basis, Debye):
    X=     0.0000    Y=     0.0000    Z=     2.0302  Tot=     2.0302
 Quadrupole moment (field-independent basis, Debye-Ang):
   XX=   -22.0388   YY=   -22.0388   ZZ=   -24.2222
   XY=     0.0000   XZ=     0.0000   YZ=     0.0000
 Traceless Quadrupole moment (field-independent basis, Debye-Ang):
   XX=     0.7278   YY=     0.7278   ZZ=    -1.4556
   XY=     0.0000   XZ=     0.0000   YZ=     0.0000
 Octapole moment (field-independent basis, Debye-Ang**2):
  XXX=     0.0000  YYY=     0.0000  ZZZ=     6.6746  XYY=     0.0000
  XXY=     0.0000  XXZ=    -0.2756  XZZ=     0.0000  YZZ=     0.0000
  YYZ=    -0.2756  XYZ=     0.0000
 Hexadecapole moment (field-independent basis, Debye-Ang**3):
 XXXX=   -26.1796 YYYY=   -26.1796 ZZZZ=   -94.5290 XXXY=     0.0000
 XXXZ=     0.0000 YYYX=     0.0000 YYYZ=     0.0000 ZZZX=     0.0000
 ZZZY=     0.0000 XXYY=    -8.7265 XXZZ=   -19.9002 YYZZ=   -19.9002
 XXYZ=     0.0000 YYXZ=     0.0000 ZZXY=     0.0000
 N-N= 8.975177131753D+01 E-N=-5.755322028974D+03  KE= 2.325390351977D+03
 Numerical evaluation of force constants complete.
 Full mass-weighted force constant matrix:
 Low frequencies ---    1.9989    2.0816    2.1522    9.1962    9.2027  735.6992
 Diagonal vibrational polarizability:
        0.0000000       0.0000000       0.0000000
 Harmonic frequencies (cm**-1), IR intensities (KM/Mole), Raman scattering
 activities (A**4/AMU), depolarization ratios for plane and unpolarized
 incident light, reduced masses (AMU), force constants (mDyne/A),
 and normal coordinates:
                     1
                    SG
 Frequencies --   735.6992
 Red. masses --    22.3771
 Frc consts  --     7.1360
 IR Inten    --     0.0000
 Atom AN      X      Y      Z
   1  33     0.00   0.00   0.25
   2   9     0.00   0.00  -0.97

 -------------------
 - Thermochemistry -
 -------------------
 Temperature   298.150 Kelvin.  Pressure   1.00000 Atm.
 Atom  1 has atomic number 33 and mass  74.92160
 Atom  2 has atomic number  9 and mass  18.99840
 Molecular mass:    93.92000 amu.
 Principal axes and moments of inertia in atomic units:
                           1         2         3
     EIGENVALUES --     0.00000 165.95597 165.95597
           X            0.00000   0.00000   1.00000
           Y            0.00000   1.00000   0.00000
           Z            1.00000   0.00000   0.00000
 This molecule is a prolate symmetric top.
 Rotational symmetry number  1.
 Rotational temperature (Kelvin)      0.52191
 Rotational constant (GHZ):          10.874819
 Zero-point vibrational energy       4400.5 (Joules/Mol)
                                    1.05173 (Kcal/Mol)
 Vibrational temperatures:   1058.51
          (Kelvin)
 
 Zero-point correction=                           0.001676 (Hartree/Particle)
 Thermal correction to Energy=                    0.004136
 Thermal correction to Enthalpy=                  0.005080
 Thermal correction to Gibbs Free Energy=        -0.021804
 Sum of electronic and zero-point Energies=          -2331.713850
 Sum of electronic and thermal Energies=             -2331.711390
 Sum of electronic and thermal Enthalpies=           -2331.710446
 Sum of electronic and thermal Free Energies=        -2331.737330
 
                     E (Thermal)             CV                S
                      KCal/Mol        Cal/Mol-Kelvin    Cal/Mol-Kelvin
 Total                    2.595              5.730             56.582
 Electronic               0.000              0.000              2.183
 Translational            0.889              2.981             39.531
 Rotational               0.592              1.987             14.602
 Vibrational              1.114              0.762              0.266
                       Q            Log10(Q)             Ln(Q)
 Total Bot       0.106975D+11         10.029282         23.093276
 Total V=0       0.631260D+11         10.800209         24.868399
 Vib (Bot)       0.174473D+00         -0.758272         -1.745985
 Vib (V=0)       0.102957D+01          0.012654          0.029138
 Electronic      0.300000D+01          0.477121          1.098612
 Translational   0.357760D+08          7.553592         17.392789
 Rotational      0.571269D+03          2.756841          6.347860
 ***** Axes restored to original set *****
 -------------------------------------------------------------------
 Center     Atomic                   Forces (Hartrees/Bohr)
 Number     Number              X              Y              Z
 -------------------------------------------------------------------
    1         33           0.000000000    0.000000000    0.000051407
    2          9           0.000000000    0.000000000   -0.000051410
 -------------------------------------------------------------------
 Cartesian Forces:  Max     0.000051410 RMS     0.000029681
 ------------------------------------------------------------------------
           Internal Coordinate Forces (Hartree/Bohr or radian)
 Cent Atom N1     Length/X     N2     Alpha/Y      N3      Beta/Z       J
 ------------------------------------------------------------------------
   1  As
   2  F     1  -0.000051(   1)
 ------------------------------------------------------------------------
 Internal  Forces:  Max     0.000051410 RMS     0.000051410

 GradGradGradGradGradGradGradGradGradGradGradGradGradGradGradGradGradGrad
 Berny optimization.
 Search for a local minimum.
 Step number   1 out of a maximum of   2
 All quantities printed in internal units (Hartrees-Bohrs-Radians)
 Second derivative matrix not updated -- analytic derivatives used.
 The second derivative matrix:
                           r
           r            0.31043
     Eigenvalues ---    0.31043
 Angle between quadratic step and forces=   0.00 degrees.
 Linear search not attempted -- first point.
 Variable       Old X    -DE/DX   Delta X   Delta X   Delta X     New X
                                 (Linear)    (Quad)   (Total)
    r         3.30913  -0.00005   0.00000  -0.00017  -0.00017   3.30896
         Item               Value     Threshold  Converged?
 Maximum Force            0.000051     0.000450     YES
 RMS     Force            0.000051     0.000300     YES
 Maximum Displacement     0.000166     0.001800     YES
 RMS     Displacement     0.000166     0.001200     YES
 Predicted change in Energy=-4.257034D-09
 Optimization completed.
    -- Stationary point found.
                       ----------------------------
                       !   Optimized Parameters   !
                       ! (Angstroms and Degrees)  !
 ----------------------                            ----------------------
 !      Name          Value   Derivative information (Atomic Units)     !
 ------------------------------------------------------------------------
 !        r          1.7511   -DE/DX =   -0.0001                        !
 ------------------------------------------------------------------------
 GradGradGradGradGradGradGradGradGradGradGradGradGradGradGradGradGradGrad

 1|1|UNPC-UNK|Freq|UCCSD(T)-FU|6-31G(d)|As1F1(3)|PCUSER|01-Jul-2010|1||
 #N GEOM=ALLCHECK GUESS=READ SCRF=CHECK GENCHK UCCSD(T)(FULL)/6-31G(D) 
 FREQ||AsF triplet casno=15120135 state=1 config=1 method=63 basis=1ÿÿ|
 |0,3|As|F,1,r||r=1.75111453||Version=x86-Win32-G03RevB.05|State=3-SG|H
 F=-2331.4183143|MP2=-2331.6965745|MP3=-2331.7002296|MP4D=-2331.7069042
 |MP4DQ=-2331.7046402|PUHF=-2331.4208137|PMP2-0=-2331.6983362|PMP3-0=-2
 331.7013076|MP4SDQ=-2331.709714|CCSD=-2331.7088714|CCSD(T)=-2331.71552
 6|S2=2.020415|S2-1=2.008349|S2A=2.00004|RMSD=4.513e-009|RMSF=2.968e-00
 5|PG=C*V [C*(F1As1)]|NImag=0||0.00005146,0.,0.00005115,0.,0.,0.3104231
 8,-0.00004378,0.,0.,0.00005063,0.,-0.00004316,0.,0.,0.00005103,0.,0.,-
 0.31041838,0.,0.,0.31043004||0.,0.,-0.00005141,0.,0.,0.00005141|||@


     SCHOPENHAUER'S LAW OF ENTROPY
 IF YOU PUT A SPOONFUL OF WINE IN A BARREL FULL
 OF SEWAGE, YOU GET SEWAGE.
 IF YOU PUT A SPOONFUL OF SEWAGE IN A BARREL FULL
 OF WINE, YOU GET SEWAGE.
 Job cpu time:  0 days  2 hours 13 minutes 42.0 seconds.
 File lengths (MBytes):  RWF=    199 Int=      0 D2E=      0 Chk=      9 Scr=      1
 Normal termination of Gaussian 03 at Thu Jul 01 12:43:51 2010.
