  MPI-parallelism will be employed.
------------------------------------------------------------
          Invoking FHI-aims ...
          Version 160527
          Git rev. (modified): 1d26984... LN: Small bug fix.
          Compiled on 2016/06/10 at 17:24:40 on host thnec-login1.

          When using FHI-aims, please cite the following reference:

          Volker Blum, Ralf Gehrke, Felix Hanke, Paula Havu,
          Ville Havu, Xinguo Ren, Karsten Reuter, and Matthias Scheffler,
          'Ab Initio Molecular Simulations with Numeric Atom-Centered Orbitals',
          Computer Physics Communications 180, 2175-2196 (2009)

          For any questions about FHI-aims, please visit the aimsclub website
          with its forums and wiki. Contributions to both the forums and the
          wiki are warmly encouraged - they are for you, and everyone is welcome there.

------------------------------------------------------------

  FHI-aims unique identifier (aims_uuid) : 5CC82F66-6EB4-02E7-6AC0-168A3FC00573


  Date     :  20160728, Time     :  052346.336
  Time zero on CPU 1             :   0.128008000000000E+00  s.
  Internal wall clock time zero  :           238915426.336  s.

  Using       12 parallel tasks.
  Task        0 on host thnec031 reporting.
  Task        1 on host thnec031 reporting.
  Task        2 on host thnec031 reporting.
  Task        3 on host thnec031 reporting.
  Task        4 on host thnec031 reporting.
  Task        5 on host thnec031 reporting.
  Task        6 on host thnec031 reporting.
  Task        7 on host thnec031 reporting.
  Task        8 on host thnec031 reporting.
  Task        9 on host thnec031 reporting.
  Task       10 on host thnec031 reporting.
  Task       11 on host thnec031 reporting.

  Performing system and environment tests:
  *** Environment variable OMP_NUM_THREADS is not set
  *** For performance reasons you might want to set it to 1
  | Stacksize not measured: no C compiler
  | Checking for scalapack...
  | Testing pdtran()...
  | All pdtran() tests passed.

  Obtaining array dimensions for all initial allocations:
  
  -----------------------------------------------------------------------
  Parsing control.in (first pass over file, find array dimensions only).
  The contents of control.in will be repeated verbatim below
  unless switched off by setting 'verbatim_writeout .false.' .
  in the first line of control.in .
  -----------------------------------------------------------------------
  
   xc      pbe
   RI_method LVL_fast
  #many_body_dispersion
  #mbd_scs_vacuum_axis .false. .false. .true.
  #mbd_eigensolver lapack
  spin collinear
  default_initial_moment 0
  fixed_spin_moment 0.0
  
  charge_mix_param 0.07
  mixer pulay
  n_max_pulay 8
  relativistic atomic_zora scalar
  
    KS_method          scalapack
    basis_threshold    1.e-5
    empty_states 8
    occupation_type gaussian 0.025
  
  partition_type rho_r2
  #relax_geometry bfgs 1d-2
  #  sc_accuracy_forces 1E-4
    sc_iter_limit      1800
    sc_accuracy_rho    1E-5
    sc_accuracy_eev    1E-3
    sc_accuracy_etot   1E-6
  
   use_dipole_correction
    k_grid 8 6 1
  
  ################################################################################
  #
  #  FHI-aims code project
  #  VB, Fritz-Haber Institut, 2009
  #
  #  Suggested "light" defaults for O atom (to be pasted into control.in file)
  #  Be sure to double-check any results obtained with these settings for post-processing,
  #  e.g., with the "tight" defaults and larger basis sets.
  #
  ################################################################################
    species        O
  #     global species definitions
      nucleus             8
      mass                15.9994
  #
      l_hartree           6
  #
      cut_pot             4.0  2.0  1.0
      basis_dep_cutoff    1e-4
  #
      radial_base         36 7.0
      radial_multiplier   2
       angular_grids specified
        division   0.1817   50
        division   0.3417  110
        division   0.4949  194
        division   0.6251  302
        division   0.8014  434
  #      division   0.8507  590
  #      division   0.8762  770
  #      division   0.9023  974
  #      division   1.2339 1202
  #      outer_grid 974
        outer_grid  434
  ################################################################################
  #
  #  Definition of "minimal" basis
  #
  ################################################################################
  #     valence basis states
      valence      2  s   2.
      valence      2  p   4.
  #     ion occupancy
      ion_occ      2  s   1.
      ion_occ      2  p   3.
  ################################################################################
  #
  #  Suggested additional basis functions. For production calculations,
  #  uncomment them one after another (the most important basis functions are
  #  listed first).
  #
  #  Constructed for dimers: 1.0 A, 1.208 A, 1.5 A, 2.0 A, 3.0 A
  #
  ################################################################################
  #  "First tier" - improvements: -699.05 meV to -159.38 meV
       hydro 2 p 1.8
       hydro 3 d 7.6
       hydro 3 s 6.4
  #  "Second tier" - improvements: -49.91 meV to -5.39 meV
  #     hydro 4 f 11.6
  #     hydro 3 p 6.2
  #     hydro 3 d 5.6
  #     hydro 5 g 17.6
  #     hydro 1 s 0.75
  #  "Third tier" - improvements: -2.83 meV to -0.50 meV
  #     ionic 2 p auto
  #     hydro 4 f 10.8
  #     hydro 4 d 4.7
  #     hydro 2 s 6.8
  #  "Fourth tier" - improvements: -0.40 meV to -0.12 meV
  #     hydro 3 p 5
  #     hydro 3 s 3.3
  #     hydro 5 g 15.6
  #     hydro 4 f 17.6
  #     hydro 4 d 14
  # Further basis functions - -0.08 meV and below
  #     hydro 3 s 2.1
  #     hydro 4 d 11.6
  #     hydro 3 p 16
  #     hydro 2 s 17.2
  ################################################################################
  #
  #  FHI-aims code project
  #  VB, Fritz-Haber Institut, 2009
  #
  #  Suggested "light" defaults for Ti atom (to be pasted into control.in file)
  #  Be sure to double-check any results obtained with these settings for post-processing,
  #  e.g., with the "tight" defaults and larger basis sets.
  #
  ################################################################################
    species        Ti
  #     global species definitions
      nucleus             22
      mass                47.867
  #
      l_hartree           6
  #
      cut_pot             4.0          2.0  1.0
      basis_dep_cutoff    1e-4
  #
      radial_base         48 7.0
      radial_multiplier   2
      angular_grids       specified
        division   0.3263   50
        division   0.7218  110
        division   1.0925  194
        division   1.3188  302
        division   1.4940  434
  #      division   1.6583  590
  #      division   1.8821  770
  #      division   2.0961  974
  #      division   3.3854 1202
  #      outer_grid  974
        outer_grid  434
  ################################################################################
  #
  #  Definition of "minimal" basis
  #
  ################################################################################
  #     valence basis states
      valence      4  s   2.
      valence      3  p   6.
      valence      3  d   2.
  #     ion occupancy
      ion_occ      4  s   1.
      ion_occ      3  p   6.
      ion_occ      3  d   1.
  ################################################################################
  #
  #  Suggested additional basis functions. For production calculations,
  #  uncomment them one after another (the most important basis functions are
  #  listed first).
  #
  #  Constructed for dimers: 1.6 A, 1.85 A, 2.5 A, 3.25 A, 4.25 A
  #
  ################################################################################
  #  "First tier" - improvements: -396.25 meV to -19.41 meV
       hydro 4 f 8
       hydro 3 d 2.7
       ionic 4 p auto
  #     hydro 5 g 11.6
       ionic 4 s auto
  #  "Second tier" - improvements: -16.30 meV to -2.03 meV
  #     hydro 3 d 4.4
  #     hydro 6 h 16
  #     hydro 4 f 9.4
  #     hydro 4 p 4.5
  #     hydro 1 s 0.5
  #  "Third tier" - improvements: -6.28 meV to -0.37 meV
  #     hydro 4 d 6.4
  #     hydro 4 f 10
  #     hydro 5 g 12
  #     hydro 2 p 1.7
  #     hydro 6 h 16.4
  #     hydro 4 s 3.8
  #  Further basis functions: -0.45 meV and smaller improvements
  #     hydro 3 d 8.8
  #     hydro 5 p 18
  #     hydro 4 f 22.4
  #     hydro 5 f 7.2  # -0.16 meV
  #     hydro 3 d 2.1  # -0.11 meV
  #     hydro 5 g 7.4  # -0.09 meV
  ################################################################################
  #
  #  FHI-aims code project
  #  VB, Fritz-Haber Institut, 2009
  #
  #  Suggested "light" defaults for Sr atom (to be pasted into control.in file)
  #  Be sure to double-check any results obtained with these settings for post-processing,
  #  e.g., with the "tight" defaults and larger basis sets.
  #
  ################################################################################
    species          Sr
  #     global species definitions
      nucleus        38
      mass           87.62
  #
      l_hartree      6
  #
      cut_pot        5.0  2.0  1.0
      basis_dep_cutoff    1e-4
  #
      radial_base    57  7.0
      radial_multiplier  2
      angular_grids specified
        division   0.6981  110
        division   0.9394  194
        division   1.1230  302
        division   1.2482  434
  #      division   1.3391  590
  #      division   1.4365  770
  #      division   7.0005  974
  #      outer_grid  974
        outer_grid  434
  ################################################################################
  #
  #  Definition of "minimal" basis
  #
  ################################################################################
  #     valence basis states
      valence      5  s   2.
      valence      4  p   6.
      valence      3  d  10.
  #     ion occupancy
      ion_occ      5  s   1.
      ion_occ      4  p   6.
      ion_occ      3  d  10.
  ################################################################################
  #
  #  Suggested additional basis functions. For production calculations,
  #  uncomment them one after another (the most important basis functions are
  #  listed first).
  #
  #  Constructed for dimers: 2.75, 3.50, 4.40, 5.00 A
  #
  ################################################################################
  #  "First tier" - improvements: -289.57 meV to -14.02 meV
       ionic 4 d auto
       ionic 5 p auto
  #     hydro 4 f 5.6
       ionic 5 s auto
  #  "Second tier" - improvements: -4.95 meV to -0.45 meV
  #     hydro 5 g 7.4
  #     hydro 4 d 4.4
  #     hydro 3 p 3.3
  #     hydro 6 h 10.4
  #     hydro 5 s 4.9
  #     hydro 5 f 13.2
  #  "Third tier" - improvements: -0.38 meV to -0.11 meV
  #     hydro 6 p 4.8
  #     hydro 5 f 6
  #     hydro 2 p 1.2
  #     hydro 1 s 0.55
  #     hydro 5 d 3.6
  #  "Fourth tier" - improvements: -0.12 meV and lower.
  #     hydro 5 p 5.2
  #     hydro 4 f 14.8
  #     hydro 5 g 7.6
  #     hydro 4 p 4.5
  #     hydro 5 d 5.4
  #     hydro 6 s 6.8
  output hirshfeld
  
  -----------------------------------------------------------------------
  Completed first pass over input file control.in .
  -----------------------------------------------------------------------
  
  
  -----------------------------------------------------------------------
  Parsing geometry.in (first pass over file, find array dimensions only).
  The contents of geometry.in will be repeated verbatim below
  unless switched off by setting 'verbatim_writeout .false.' .
  in the first line of geometry.in .
  -----------------------------------------------------------------------
  
  lattice_vector      3.9473      0.00000000      0.00000000
  lattice_vector      0.00000000      5.5823      0.00000000
  lattice_vector      0.00000000      0.00000000    250.00000000
  atom	-1.97365	4.1867438961	4.1867438961	O
  atom	-1.97365	1.3955812987	4.1867438961	O
  atom	0	2.7911625974	2.7911625974	Sr
  atom	-1.97365	5.5823251948	2.7911625974	Ti
  atom	0	5.5823251948	2.7911625974	O
  atom	-1.97365	1.3955812987	1.3955812987	O
  atom	-1.97365	4.1867438961	1.3955812987	O
  atom	0	5.5823251948	6.197625962162E-016	Sr
  atom	-1.97365	2.7911625974	6.197625962162E-016	Ti
  atom	0	2.7911625974	6.197625962162E-016	O
  atom	-1.97365	4.1867438961	-1.3955812987	O
  atom	-1.97365	1.3955812987	-1.3955812987	O
  atom	0	2.7911625974	-2.7911625974	Sr
  atom	-1.97365	5.5823251948	-2.7911625974	Ti
  atom	0	5.5823251948	-2.7911625974	O
  homogeneous_field	0.0	0.0	13.0 #0.041075202
  
  -----------------------------------------------------------------------
  Completed first pass over input file geometry.in .
  -----------------------------------------------------------------------
  
* Attention. An external embedding field
* was specified for a periodic system.
* At present, this combination is experimental,
* and incorrect results could be obtained.
* Please proceed with caution.

  Basic array size parameters:
  | Number of species                 :        3
  | Number of atoms                   :       15
  | Number of lattice vectors         :        3
  | Max. basis fn. angular momentum   :        3
  | Max. atomic/ionic basis occupied n:        5
  | Max. number of basis fn. types    :        3
  | Max. radial fns per species/type  :        9
  | Max. logarithmic grid size        :     1428
  | Max. radial integration grid size :      115
  | Max. angular integration grid size:      434
  | Max. angular grid division number :        8
  | Radial grid for Hartree potential :     1428
  | Number of spin channels           :        2
  | External embedding multipoles     :        0

------------------------------------------------------------
          Reading file control.in.
------------------------------------------------------------
  XC: Using PBE gradient-corrected functionals.
  The 'LVL' version of RI (resolution of identity) technique is used.
  ** This is a localized expansion of all basis function products.
     Its intended use are Hartree-Fock and hybrid functionals.
     For RPA, MP2, GW, etc., LVL is not yet as accurate. In those cases, check carefully.
  Spin treatment: Spin density functional theory - collinear spins.
  Initial spin moment per atom:   0.0000
  Fixed spin moment calculation, N_up - N_down =      0.00000000
  Charge density mixing - mixing parameter:     0.0700
  Using pulay charge density mixing.
  Pulay mixing - number of memorized iterations:    8
  Scalar relativistic treatment of kinetic energy: on-site free-atom approximation to ZORA.
  Kohn-Sham eigenvalues and eigenfunctions calculated by the ELPA eigensolver library.
  Threshold for basis singularities:  0.1000E-04
  Number of empty states per atom:        8
  Occupation type: Gaussian broadening, width =   0.250000E-01 eV.
  Partition function in integrals calculations: rho / r^2
  Maximum number of s.-c. iterations  :  1800
  Convergence accuracy of self-consistent charge density:  0.1000E-04
  Convergence accuracy of sum of eigenvalues:  0.1000E-02
  Convergence accuracy of total energy:  0.1000E-05
  Using dipole correction.
  Found k-point grid:         8         6         1
 
  Reading configuration options for species O                   .
  | Found nuclear charge :   8.0000
  | Found atomic mass :    15.9994000000000      amu
  | Found l_max for Hartree potential  :   6
  | Found cutoff potl. onset [A], width [A], scale factor :    4.00000    2.00000    1.00000
  | Threshold for basis-dependent cutoff potential is   0.100000E-03
  | Found data for basic radial integration grid :    36 points, outermost radius =    7.000 A
  | Found multiplier for basic radial grid :   2
  | Found angular grid specification: user-specified.
  | Specified grid contains     6 separate shells.
  | Check grid settings after all constraints further below.
  | Found free-atom valence shell :  2 s   2.000
  | Found free-atom valence shell :  2 p   4.000
  | Found free-ion valence shell :  2 s   1.000
  | Found free-ion valence shell :  2 p   3.000
  | Found hydrogenic basis function :  2 p   1.800
  | Found hydrogenic basis function :  3 d   7.600
  | Found hydrogenic basis function :  3 s   6.400
  Species O                   : Missing cutoff potential type.
  Defaulting to exp(1/x)/(1-x)^2 type cutoff potential.
  Species O : No 'logarithmic' tag. Using default grid for free atom:
  | Default logarithmic grid data [bohr] : 0.1000E-03 0.1000E+03 0.1012E+01
  Species O : On-site basis accuracy parameter (for Gram-Schmidt orthonormalisation) not specified.
  Using default value basis_acc =  0.1000000E-03.
  Species O                   : Using default innermost maximum threshold i_radial=  2 for radial functions.
  Species O                   : Default cutoff onset for free atom density etc. : 0.40000000E+01 AA.
  Species O                   : Basic radial grid will be enhanced according to radial_multiplier =   2, to contain    73 grid points.
 
  Reading configuration options for species Ti                  .
  | Found nuclear charge :  22.0000
  | Found atomic mass :    47.8670000000000      amu
  | Found l_max for Hartree potential  :   6
  | Found cutoff potl. onset [A], width [A], scale factor :    4.00000    2.00000    1.00000
  | Threshold for basis-dependent cutoff potential is   0.100000E-03
  | Found data for basic radial integration grid :    48 points, outermost radius =    7.000 A
  | Found multiplier for basic radial grid :   2
  | Found angular grid specification: user-specified.
  | Specified grid contains     6 separate shells.
  | Check grid settings after all constraints further below.
  | Found free-atom valence shell :  4 s   2.000
  | Found free-atom valence shell :  3 p   6.000
  | Found free-atom valence shell :  3 d   2.000
  | Found free-ion valence shell :  4 s   1.000
  | Found free-ion valence shell :  3 p   6.000
  | Found free-ion valence shell :  3 d   1.000
  | Found hydrogenic basis function :  4 f   8.000
  | Found hydrogenic basis function :  3 d   2.700
  | Found ionic basis function :  4 p , default cutoff radius.
  | Found ionic basis function :  4 s , default cutoff radius.
  Species Ti                  : Missing cutoff potential type.
  Defaulting to exp(1/x)/(1-x)^2 type cutoff potential.
  Species Ti: No 'logarithmic' tag. Using default grid for free atom:
  | Default logarithmic grid data [bohr] : 0.1000E-03 0.1000E+03 0.1012E+01
  | Will include ionic basis functions of  2.0-fold positive Ti                   ion.
  Species Ti: On-site basis accuracy parameter (for Gram-Schmidt orthonormalisation) not specified.
  Using default value basis_acc =  0.1000000E-03.
  Species Ti                  : Using default innermost maximum threshold i_radial=  2 for radial functions.
  Species Ti                  : Default cutoff onset for free atom density etc. : 0.40000000E+01 AA.
  Species Ti                  : Basic radial grid will be enhanced according to radial_multiplier =   2, to contain    97 grid points.
 
  Reading configuration options for species Sr                  .
  | Found nuclear charge :  38.0000
  | Found atomic mass :    87.6200000000000      amu
  | Found l_max for Hartree potential  :   6
  | Found cutoff potl. onset [A], width [A], scale factor :    5.00000    2.00000    1.00000
  | Threshold for basis-dependent cutoff potential is   0.100000E-03
  | Found data for basic radial integration grid :    57 points, outermost radius =    7.000 A
  | Found multiplier for basic radial grid :   2
  | Found angular grid specification: user-specified.
  | Specified grid contains     5 separate shells.
  | Check grid settings after all constraints further below.
  | Found free-atom valence shell :  5 s   2.000
  | Found free-atom valence shell :  4 p   6.000
  | Found free-atom valence shell :  3 d  10.000
  | Found free-ion valence shell :  5 s   1.000
  | Found free-ion valence shell :  4 p   6.000
  | Found free-ion valence shell :  3 d  10.000
  | Found ionic basis function :  4 d , default cutoff radius.
  | Found ionic basis function :  5 p , default cutoff radius.
  | Found ionic basis function :  5 s , default cutoff radius.
  Species Sr                  : Missing cutoff potential type.
  Defaulting to exp(1/x)/(1-x)^2 type cutoff potential.
  Species Sr: No 'logarithmic' tag. Using default grid for free atom:
  | Default logarithmic grid data [bohr] : 0.1000E-03 0.1000E+03 0.1012E+01
  | Will include ionic basis functions of  1.0-fold positive Sr                   ion.
  Species Sr: On-site basis accuracy parameter (for Gram-Schmidt orthonormalisation) not specified.
  Using default value basis_acc =  0.1000000E-03.
  Species Sr                  : Using default innermost maximum threshold i_radial=  2 for radial functions.
  Species Sr                  : Default cutoff onset for free atom density etc. : 0.50000000E+01 AA.
  Species Sr                  : Basic radial grid will be enhanced according to radial_multiplier =   2, to contain   115 grid points.
  Hirshfeld charge analysis will be performed.
 
  Finished reading input file 'control.in'. Consistency checks are next.
 
  Target number of points in a grid batch is not set. Defaulting to  100
  Method for grid partitioning is not set. Defaulting to parallel hash+maxmin partitioning.
  Batch size limit is not set. Defaulting to    200
  By default, will store active basis functions for each batch.
  If in need of memory, prune_basis_once .false. can be used to disable this option.
  communication_type for Hartree potential was not specified.
  Defaulting to calc_hartree .
  Pulay mixer: Number of initial linear mixing iterations not set.
  Defaulting to    0 iterations.
  Work space size for distributed Hartree potential not set.
  Defaulting to   0.200000E+03 MB.
  Mixing parameter for spin density mixing has not been set.
  Using charge_mix_param as default:     0.0700.
  Algorithm-dependent basis array size parameters:
  | n_max_pulay                         :        8
  Calculation of forces was not defined in control.in. No forces will be calculated.
  Geometry relaxation not requested: no relaxation will be performed.
  No accuracy limit for integral partition fn. given. Defaulting to  0.1000E-14.
  No threshold value for u(r) in integrations given. Defaulting to  0.1000E-05.
  No accuracy for occupation numbers given. Defaulting to  0.1000E-07.
  No threshold value for occupation numbers given. Defaulting to  0.0000E+00.
  No accuracy for fermi level given. Defaulting to  0.1000E-19.
  Maximum # of iterations to find E_F not set. Defaulting to  200.
 * You have    48 k-points in your system, but only    12 MPI-tasks available.
 * In this case using ScaLAPACK is not necessary / supported.
 * Switching to default eigenvalue solver (lapack_fast) instead.
  Will not use alltoall communication since running on < 1024 CPUs.
  Partitioning for Hartree potential was not defined. Using partition_type for integrals.
  | Reporting present value of keyword multip_moments_threshold  :       0.10000000E-09
  | This value may affect high angular momentum components of the Hartree potential in periodic systems.
  Angular momentum expansion for Kerker preconditioner not set explicitly.
  | Using default value of   0
  No explicit requirement for turning off preconditioner.
  | By default, it will be turned off when the charge convergence reaches
  | sc_accuracy_rho  =   0.100000E-04
  | sc_accuracy_eev  =   0.100000E-02
  | sc_accuracy_etot =   0.100000E-05
  No special mixing parameter while Kerker preconditioner is on.
  Using default: charge_mix_param =     0.0700.
  No q(lm)/r^(l+1) cutoff set for long-range Hartree potential.
  | Using default value of  0.100000E-09 .
  | Verify using the multipole_threshold keyword.
  Defaulting to new monopole extrapolation.
  Density update method: automatic selection selected.
  Using density matrix based charge density update.
  Using density matrix based charge density update.
  Using packed matrix style: index .
  Defaulting to use time-reversal symmetry for k-point grid.
------------------------------------------------------------


------------------------------------------------------------
          Reading geometry description geometry.in.
------------------------------------------------------------
  Homogeneous electric field specified. Values:  0.000000E+00  0.000000E+00  0.130000E+02
  Input structure read successfully.
  The structure contains       15 atoms,  and a total of        252.000 electrons.

  Input geometry:
  | Unit cell:
  |         3.947300         0.000000         0.000000
  |         0.000000         5.582300         0.000000
  |         0.000000         0.000000       250.000000
  | Atomic structure:
  |       Atom                x [A]            y [A]            z [A]
  |    1: Species O             -1.973650         4.186744         4.186744
  |    2: Species O             -1.973650         1.395581         4.186744
  |    3: Species Sr             0.000000         2.791163         2.791163
  |    4: Species Ti            -1.973650         5.582325         2.791163
  |    5: Species O              0.000000         5.582325         2.791163
  |    6: Species O             -1.973650         1.395581         1.395581
  |    7: Species O             -1.973650         4.186744         1.395581
  |    8: Species Sr             0.000000         5.582325         0.000000
  |    9: Species Ti            -1.973650         2.791163         0.000000
  |   10: Species O              0.000000         2.791163         0.000000
  |   11: Species O             -1.973650         4.186744        -1.395581
  |   12: Species O             -1.973650         1.395581        -1.395581
  |   13: Species Sr             0.000000         2.791163        -2.791163
  |   14: Species Ti            -1.973650         5.582325        -2.791163
  |   15: Species O              0.000000         5.582325        -2.791163

  Lattice parameters for dimension 3 lattice :     3.947300    5.582300  250.000000   90.000000   90.000000   90.000000

  |

  | The smallest distance between any two atoms is         1.97363218 AA.
  |
  | The first atom of this pair is atom number                      2 .
  | The second atom of this pair is atom number                     4 .
  | Wigner-Seitz cell of the first atom image           0     0     0 .
  | (The Wigner-Seitz cell of the second atom is 0 0 0  by definition.)

  Quantities derived from the lattice vectors:
  | Reciprocal lattice vector 1:  1.591768  0.000000  0.000000
  | Reciprocal lattice vector 2:  0.000000  1.125555  0.000000
  | Reciprocal lattice vector 3:  0.000000  0.000000  0.025133
  | Unit cell volume                               :   0.550875E+04  A^3

  Initial moments and charges:
  |  Atom   Moment         Charge        Species
  |     1   0.000000E+00   0.000000E+00   O
  |     2   0.000000E+00   0.000000E+00   O
  |     3   0.000000E+00   0.000000E+00   Sr
  |     4   0.000000E+00   0.000000E+00   Ti
  |     5   0.000000E+00   0.000000E+00   O
  |     6   0.000000E+00   0.000000E+00   O
  |     7   0.000000E+00   0.000000E+00   O
  |     8   0.000000E+00   0.000000E+00   Sr
  |     9   0.000000E+00   0.000000E+00   Ti
  |    10   0.000000E+00   0.000000E+00   O
  |    11   0.000000E+00   0.000000E+00   O
  |    12   0.000000E+00   0.000000E+00   O
  |    13   0.000000E+00   0.000000E+00   Sr
  |    14   0.000000E+00   0.000000E+00   Ti
  |    15   0.000000E+00   0.000000E+00   O

  Structure-dependent array size parameters: 
  | Number of distinct atom types in initial rho :        3
  | Maximum number of distinct radial functions  :       29
  | Maximum number of basis functions            :      303
  | Number of Kohn-Sham states (occupied + empty):      186
------------------------------------------------------------
 Electric fields in periodic systems require setting vacuum level
 Vacuum level will be determined automatically.
 Determine position of vacuum level automatically
 **WARNING** : This feature is experimental and still requires some testing
 **PLEASE ** : If you see it fail, please report.
 Vacuum level determined:
 set_vacuum_level    125.697790649350

------------------------------------------------------------
          Preparing all fixed parts of the calculation.
------------------------------------------------------------
  Determining machine precision:
    2.225073858507201E-308
  Setting up grids for atomic and cluster calculations.

  Creating wave function, potential, and density for free atoms.

  Species: O

  List of occupied orbitals and eigenvalues:
    n    l              occ      energy [Ha]    energy [eV]
    1    0           2.0000       -18.927378      -515.0401
    2    0           2.0000        -0.880539       -23.9607
    2    1           4.0000        -0.331811        -9.0290


  Species: Ti

  List of occupied orbitals and eigenvalues:
    n    l              occ      energy [Ha]    energy [eV]
    1    0           2.0000      -179.971977     -4897.2867
    2    0           2.0000       -19.740069      -537.1546
    3    0           2.0000        -2.295181       -62.4550
    4    0           2.0000        -0.158903        -4.3240
    2    1           6.0000       -16.329721      -444.3543
    3    1           6.0000        -1.421430       -38.6791
    3    2           2.0000        -0.150533        -4.0962


  Species: Sr

  List of occupied orbitals and eigenvalues:
    n    l              occ      energy [Ha]    energy [eV]
    1    0           2.0000      -596.637823    -16235.3412
    2    0           2.0000       -79.548673     -2164.6295
    3    0           2.0000       -12.266194      -333.7801
    4    0           2.0000        -1.498347       -40.7721
    5    0           2.0000        -0.126278        -3.4362
    2    1           6.0000       -70.664550     -1922.8802
    3    1           6.0000        -9.410391      -256.0698
    4    1           6.0000        -0.834079       -22.6964
    3    2          10.0000        -4.701548      -127.9356

  Spin-polarized or charged system:
  Charge density initialized according to selected moments and charges.

  Creating spin-polarized density from free atoms.

  Species: O
  Charge:   0.000000
  Moment:   0.000000

  List of occupied orbitals and eigenvalues:
    n    l      energy [Ha]    energy [eV]    occupation
  Spin-up
    1    0       -18.927378      -515.0401     1.00000000
    2    0        -0.880539       -23.9607     1.00000000
    2    1        -0.331811        -9.0290     2.00000000
  Spin-down
    1    0       -18.927378      -515.0401     1.00000000
    2    0        -0.880539       -23.9607     1.00000000
    2    1        -0.331811        -9.0290     2.00000000


  Species: Sr
  Charge:   0.000000
  Moment:   0.000000

  List of occupied orbitals and eigenvalues:
    n    l      energy [Ha]    energy [eV]    occupation
  Spin-up
    1    0      -596.637823    -16235.3412     1.00000000
    2    0       -79.548673     -2164.6295     1.00000000
    3    0       -12.266194      -333.7801     1.00000000
    4    0        -1.498347       -40.7721     1.00000000
    5    0        -0.126278        -3.4362     1.00000000
    2    1       -70.664550     -1922.8802     3.00000000
    3    1        -9.410391      -256.0698     3.00000000
    4    1        -0.834079       -22.6964     3.00000000
    3    2        -4.701548      -127.9356     5.00000000
  Spin-down
    1    0      -596.637823    -16235.3412     1.00000000
    2    0       -79.548673     -2164.6295     1.00000000
    3    0       -12.266194      -333.7801     1.00000000
    4    0        -1.498347       -40.7721     1.00000000
    5    0        -0.126278        -3.4362     1.00000000
    2    1       -70.664550     -1922.8802     3.00000000
    3    1        -9.410391      -256.0698     3.00000000
    4    1        -0.834079       -22.6964     3.00000000
    3    2        -4.701548      -127.9356     5.00000000


  Species: Ti
  Charge:   0.000000
  Moment:   0.000000

  List of occupied orbitals and eigenvalues:
    n    l      energy [Ha]    energy [eV]    occupation
  Spin-up
    1    0      -179.971977     -4897.2867     1.00000000
    2    0       -19.740069      -537.1546     1.00000000
    3    0        -2.295181       -62.4550     1.00000000
    4    0        -0.158903        -4.3240     1.00000000
    2    1       -16.329721      -444.3543     3.00000000
    3    1        -1.421430       -38.6791     3.00000000
    3    2        -0.150533        -4.0962     1.00000000
  Spin-down
    1    0      -179.971977     -4897.2867     1.00000000
    2    0       -19.740069      -537.1546     1.00000000
    3    0        -2.295181       -62.4550     1.00000000
    4    0        -0.158903        -4.3240     1.00000000
    2    1       -16.329721      -444.3543     3.00000000
    3    1        -1.421430       -38.6791     3.00000000
    3    2        -0.150533        -4.0962     1.00000000

  Creating fixed part of basis set: Ionic, confined, hydrogenic.
 
  O                    hydrogenic:
 
  List of hydrogenic basis orbitals: 
    n    l      effective z      eigenvalue [eV]  inner max. [A]     outer max. [A]     outer radius [A]   
    2    1         1.800000       -11.0118           1.178562           1.178562           5.432602
    3    2         7.600000       -87.3182           0.624125           0.624125           3.541477
    3    0         6.400000       -61.9209           0.061167           1.081902           4.306578
 
 
  Ti                   ion:

  List of free ionic orbitals and eigenvalues:
    n    l      energy [Ha]    energy [eV]
    1    0      -180.819616     -4920.3521
    2    0       -20.608761      -560.7929
    3    0        -3.115729       -84.7833
    4    0        -0.697188       -18.9715
    2    1       -17.196209      -467.9327
    3    1        -2.231296       -60.7167
    3    2        -0.911363       -24.7995


  List of ionic basis orbitals and eigenvalues:
    n    l      energy [Ha]    energy [eV]    outer radius [A]
    4    1        -0.519390       -14.1333       5.449321
    4    0        -0.697156       -18.9706       5.383109

 
  Ti                   hydrogenic:
 
  List of hydrogenic basis orbitals: 
    n    l      effective z      eigenvalue [eV]  inner max. [A]     outer max. [A]     outer radius [A]   
    4    3         8.000000       -54.4226           1.059019           1.059019           4.648601
    3    2         2.700000       -10.9576           1.748166           1.748166           5.449321
 
 
  Sr                   ion:

  List of free ionic orbitals and eigenvalues:
    n    l      energy [Ha]    energy [eV]
    1    0      -596.882744    -16242.0059
    2    0       -79.789776     -2171.1903
    3    0       -12.506389      -340.3162
    4    0        -1.735484       -47.2249
    5    0        -0.306751        -8.3471
    2    1       -70.905624     -1929.4402
    3    1        -9.650538      -262.6045
    4    1        -1.069688       -29.1077
    3    2        -4.941615      -134.4682


  List of ionic basis orbitals and eigenvalues:
    n    l      energy [Ha]    energy [eV]    outer radius [A]
    4    2        -0.249564        -6.7910       6.410879
    5    1        -0.197708        -5.3799       6.410879
    5    0        -0.306582        -8.3425       6.410879


  Adding cutoff potential to free-atom effective potential.
  Creating atomic-like basis functions for current effective potential.

  Species O                   :

  List of atomic basis orbitals and eigenvalues:
    n    l      energy [Ha]    energy [eV]    outer radius [A]
    1    0       -18.927378      -515.0401       1.415765
    2    0        -0.880539       -23.9607       5.048385
    2    1        -0.331811        -9.0290       5.301386


  Species Ti                  :

  List of atomic basis orbitals and eigenvalues:
    n    l      energy [Ha]    energy [eV]    outer radius [A]
    1    0      -179.971977     -4897.2867       0.490254
    2    0       -19.740069      -537.1546       1.491292
    3    0        -2.295181       -62.4550       4.215492
    4    0        -0.158903        -4.3240       5.449321
    2    1       -16.329721      -444.3543       1.585290
    3    1        -1.421430       -38.6791       4.822253
    3    2        -0.150533        -4.0962       5.383109


  Species Sr                  :

  List of atomic basis orbitals and eigenvalues:
    n    l      energy [Ha]    energy [eV]    outer radius [A]
    1    0      -596.637823    -16235.3412       0.273611
    2    0       -79.548673     -2164.6295       0.773426
    3    0       -12.266194      -333.7801       1.934692
    4    0        -1.498347       -40.7721       5.271931
    5    0        -0.126278        -3.4362       6.410879
    2    1       -70.664550     -1922.8802       0.792569
    3    1        -9.410391      -256.0698       2.133466
    4    1        -0.834079       -22.6964       5.957473
    3    2        -4.701548      -127.9356       2.791830

  Assembling full basis from fixed parts.
  | Species O :   atomic orbital   1 s accepted.
  | Species O :    hydro orbital   3 s accepted.
  | Species O :   atomic orbital   2 s accepted.
  | Species O :   atomic orbital   2 p accepted.
  | Species O :    hydro orbital   2 p accepted.
  | Species O :    hydro orbital   3 d accepted.
  | Species Ti :   atomic orbital   1 s accepted.
  | Species Ti :   atomic orbital   2 s accepted.
  | Species Ti :   atomic orbital   3 s accepted.
  | Species Ti :    ionic orbital   4 s accepted.
  | Species Ti :   atomic orbital   4 s accepted.
  | Species Ti :   atomic orbital   2 p accepted.
  | Species Ti :   atomic orbital   3 p accepted.
  | Species Ti :    ionic orbital   4 p accepted.
  | Species Ti :   atomic orbital   3 d accepted.
  | Species Ti :    hydro orbital   3 d accepted.
  | Species Ti :    hydro orbital   4 f accepted.
  | Species Sr :   atomic orbital   1 s accepted.
  | Species Sr :   atomic orbital   2 s accepted.
  | Species Sr :   atomic orbital   3 s accepted.
  | Species Sr :   atomic orbital   4 s accepted.
  | Species Sr :   atomic orbital   5 s accepted.
  | Species Sr :    ionic orbital   5 s accepted.
  | Species Sr :   atomic orbital   2 p accepted.
  | Species Sr :   atomic orbital   3 p accepted.
  | Species Sr :   atomic orbital   4 p accepted.
  | Species Sr :    ionic orbital   5 p accepted.
  | Species Sr :   atomic orbital   3 d accepted.
  | Species Sr :    ionic orbital   4 d accepted.
 
  Basis size parameters after reduction:
  | Total number of radial functions:       29
  | Total number of basis functions :      303
 
  Testing on-site integration grid accuracy.
  |  Species  Function  <phi|h_atom|phi> (log., in eV)  <phi|h_atom|phi> (rad., in eV)
           1        1               -515.0401491148               -515.0401445497
           1        2                 15.1629302771                 15.1629233102
           1        3                -21.6127103295                -21.6127145449
           1        4                 -9.0290718243                 -9.0290720379
           1        5                  7.9075681532                  7.9075643182
           1        6                 45.8331828879                 45.8331828941
           2        7              -4897.2866775048              -4897.2865281705
           2        8               -537.1546057165               -537.1546030101
           2        9                -62.4550461141                -62.4550457173
           2       10                 -3.5044071906                 -3.5043997442
           2       11                  4.8243353859                  4.8253021531
           2       12               -444.3543098525               -444.3543092932
           2       13                -38.6790689451                -38.6790687353
           2       14                 -0.0282770067                 -0.0282312865
           2       15                 -4.0966922458                 -4.0966843178
           2       16                  5.3329074065                  5.3332050496
           2       17                 27.5821189441                 27.5821192959
           3       18             -16235.3411959425             -16235.3401456950
           3       19              -2164.6295288225              -2164.6295099991
           3       20               -333.7801097175               -333.7801075369
           3       21                -40.7720916726                -40.7720912370
           3       22                 -3.4406359568                 -3.4419520020
           3       23                  2.8739967690                  2.8582477411
           3       24              -1922.8802467452              -1922.8802444613
           3       25               -256.0697655338               -256.0697643747
           3       26                -22.6964362489                -22.6964360028
           3       27                 -0.9343310077                 -0.9368523367
           3       28               -127.9356359447               -127.9356356271
           3       29                 -1.0089052297                 -1.0090501997

  Preparing densities etc. for the partition functions (integrals / Hartree potential).

  Preparations completed.
  max(cpu_time)          :      0.924 s.
  Wall clock time (cpu1) :      0.948 s.
------------------------------------------------------------

------------------------------------------------------------
          Begin self-consistency loop: Initialization.

          Date     :  20160728, Time     :  052347.647
------------------------------------------------------------

  Initializing index lists of integration centers etc. from given atomic structure:
  Mapping all atomic coordinates to central unit cell.

  Initializing the k-points
          Using symmetry for reducing the k-points
  | k-points reduced from:       48 to       26
  | Number of k-points                             :        26
  The eigenvectors in the calculations are COMPLEX.
  | K-points in task   0:         2
  | K-points in task   1:         3
  | K-points in task   2:         3
  | K-points in task   3:         2
  | K-points in task   4:         2
  | K-points in task   5:         2
  | K-points in task   6:         2
  | K-points in task   7:         2
  | K-points in task   8:         2
  | K-points in task   9:         2
  | K-points in task  10:         2
  | K-points in task  11:         2
  | Number of basis functions in the Hamiltonian integrals :      2696
  | Number of basis functions in a single unit cell        :       303
  | Number of centers in hartree potential         :       584
  | Number of centers in hartree multipole         :       511
  | Number of centers in electron density summation:       440
  | Number of centers in basis integrals           :       460
  | Number of centers in integrals                 :       193
  | Number of centers in hamiltonian               :       481
  | Consuming         17 KiB for k_phase.
  | Number of super-cells (origin) [n_cells]                     :         297
  | Number of super-cells (after PM_index) [n_cells]             :          42
  | Number of super-cells in hamiltonian [n_cells_in_hamiltonian]:          42
  | Size of matrix packed + index [n_hamiltonian_matrix_size] :      503860
  Partitioning the integration grid into batches with parallel hashing+maxmin method.
  | Number of batches:     3775
  | Maximal batch size:     184
  | Minimal batch size:      63
  | Average batch size:      85.769
  | Standard deviation of batch sizes:      30.129

  Integration load balanced across    12 MPI tasks.
  Work distribution over tasks is as follows:
  Task     0 has      26950 integration points.
  Task     1 has      27057 integration points.
  Task     2 has      26940 integration points.
  Task     3 has      27050 integration points.
  Task     4 has      26982 integration points.
  Task     5 has      27050 integration points.
  Task     6 has      26940 integration points.
  Task     7 has      26954 integration points.
  Task     8 has      26956 integration points.
  Task     9 has      26949 integration points.
  Task    10 has      26954 integration points.
  Task    11 has      26996 integration points.
  Initializing partition tables, free-atom densities, potentials, etc. across the integration grid (initialize_grid_storage).
  | Net number of integration points:   323778
  | of which are non-zero points    :   312637
  | Numerical average free-atom electrostatic potential    :     -0.68394730 eV
  Renormalizing the initial density to the exact electron count on the 3D integration grid.
  | Initial density: Formal number of electrons (from input files) :     252.0000000000
  | Integrated number of electrons on 3D grid     :     252.0007710926
  | Charge integration error                      :       0.0007710926
  | Normalization factor for density and gradient :       0.9999969401
  Renormalizing the free-atom superposition density to the exact electron count on the 3D integration grid.
  | Formal number of electrons (from input files) :     252.0000000000
  | Integrated number of electrons on 3D grid     :     252.0007710926
  | Charge integration error                      :       0.0007710926
  | Normalization factor for density and gradient :       0.9999969401
  Obtaining max. number of non-zero basis functions in each batch (get_n_compute_maxes).
  | Maximal number of non-zero basis functions:      914 in task     0
  | Maximal number of non-zero basis functions:      908 in task     1
  | Maximal number of non-zero basis functions:      920 in task     2
  | Maximal number of non-zero basis functions:      912 in task     3
  | Maximal number of non-zero basis functions:      916 in task     4
  | Maximal number of non-zero basis functions:      898 in task     5
  | Maximal number of non-zero basis functions:      922 in task     6
  | Maximal number of non-zero basis functions:      913 in task     7
  | Maximal number of non-zero basis functions:      911 in task     8
  | Maximal number of non-zero basis functions:      916 in task     9
  | Maximal number of non-zero basis functions:      913 in task    10
  | Maximal number of non-zero basis functions:      901 in task    11
  Integrating Hamiltonian matrix: batch-based integration.
  Time summed over all CPUs for integration: real work      138.275 s, elapsed      140.814 s
  Integrating overlap matrix.
  Time summed over all CPUs for integration: real work       50.031 s, elapsed       50.992 s
  Decreasing sparse matrix size:
   Tolerance:  9.999999824516700E-014
   Hamiltonian matrix
  | Array has   416585 nonzero elements out of   503860 elements
  | Sparsity factor is 0.173
   Overlap matrix
  | Array has   377759 nonzero elements out of   503860 elements
  | Sparsity factor is 0.250
  New size of hamiltonian matrix:      418068

  Updating Kohn-Sham eigenvalues, eigenvectors, occupation numbers, and Fermi level.
  Solving generalized eigenproblem
  Transforming overlap matrix and checking for singularities.
  Overlap matrix is nonsingular at first k-point:
  | Lowest eigenvalue:  0.438123E-03
  Determining occupation numbers for Kohn-Sham eigenstates.
  | Chemical potential (Fermi level) for spin channel 1 in eV               :  -15.5492017891
  | Error in electron count due to remaining E_F inaccuracy: -.9777E-08
  | Maximum occupation number of highest empty state:  0.00E+00

  Determining occupation numbers for Kohn-Sham eigenstates.
  | Chemical potential (Fermi level) for spin channel 2 in eV               :  -15.5492017891
  | Error in electron count due to remaining E_F inaccuracy: -.9777E-08
  | Maximum occupation number of highest empty state:  0.00E+00

  Fixed spin moments - chemical potentials:
  | Chemical potential, spin up:  -15.5492017891 eV.
  | Chemical potential, spin dn:  -15.5492017891 eV.
  | Fixed spin moment: Difference in chemical potentials between spin channels:   0.0000000000 eV.

  Writing Kohn-Sham eigenvalues.

  Spin-up eigenvalues:
  K-point:       1 at    0.000000    0.000000    0.000000 (in units of recip. lattice)

  State    Occupation    Eigenvalue [Ha]    Eigenvalue [eV]
      1       1.00000        -597.644226       -16262.72682
      2       1.00000        -596.313320       -16226.51104
      3       1.00000        -594.977108       -16190.15086
      4       1.00000        -180.998396        -4925.21695
      5       1.00000        -179.671072        -4889.09863
      6       1.00000        -178.328795        -4852.57340
      7       1.00000         -80.555516        -2192.02712
      8       1.00000         -79.224648        -2155.81236
      9       1.00000         -77.888397        -2119.45111
     10       1.00000         -71.671351        -1950.27669
     11       1.00000         -71.671349        -1950.27664
     12       1.00000         -71.671278        -1950.27470
     13       1.00000         -70.340467        -1914.06150
     14       1.00000         -70.340467        -1914.06150
     15       1.00000         -70.340410        -1914.05995
     16       1.00000         -69.004229        -1877.70060
     17       1.00000         -69.004228        -1877.70059
     18       1.00000         -69.004154        -1877.69856
     19       1.00000         -20.768375         -565.13623
     20       1.00000         -20.664429         -562.30773
     21       1.00000         -20.664427         -562.30767
     22       1.00000         -20.053996         -545.69700
     23       1.00000         -19.441281         -529.02417
     24       1.00000         -19.401040         -527.92915
     25       1.00000         -19.401037         -527.92907
     26       1.00000         -18.734373         -509.78824
     27       1.00000         -18.098615         -492.48837
     28       1.00000         -18.067530         -491.64251
     29       1.00000         -18.067527         -491.64244
     30       1.00000         -17.386875         -473.12095
     31       1.00000         -17.357355         -472.31767
     32       1.00000         -17.357283         -472.31571
     33       1.00000         -17.356687         -472.29950
     34       1.00000         -16.030122         -436.20181
     35       1.00000         -16.030119         -436.20174
     36       1.00000         -16.029581         -436.18709
     37       1.00000         -14.687591         -399.66969
     38       1.00000         -14.687504         -399.66731
     39       1.00000         -14.686759         -399.64703
     40       1.00000         -13.275542         -361.24587
     41       1.00000         -11.944992         -325.03978
     42       1.00000         -10.608492         -288.67174
     43       1.00000         -10.418701         -283.50727
     44       1.00000         -10.418681         -283.50675
     45       1.00000         -10.417015         -283.46140
     46       1.00000          -9.088060         -247.29869
     47       1.00000          -9.088059         -247.29868
     48       1.00000          -9.086532         -247.25710
     49       1.00000          -7.751565         -210.93081
     50       1.00000          -7.751562         -210.93074
     51       1.00000          -7.749804         -210.88290
     52       1.00000          -5.709335         -155.35891
     53       1.00000          -5.709325         -155.35862
     54       1.00000          -5.708727         -155.34237
     55       1.00000          -5.708702         -155.34169
     56       1.00000          -5.708516         -155.33663
     57       1.00000          -4.378671         -119.14969
     58       1.00000          -4.378663         -119.14949
     59       1.00000          -4.378193         -119.13669
     60       1.00000          -4.378180         -119.13633
     61       1.00000          -4.378030         -119.13225
     62       1.00000          -3.365101          -91.56905
     63       1.00000          -3.042163          -82.78146
     64       1.00000          -3.042155          -82.78126
     65       1.00000          -3.041525          -82.76410
     66       1.00000          -3.041516          -82.76385
     67       1.00000          -3.041318          -82.75848
     68       1.00000          -2.689468          -73.18414
     69       1.00000          -2.671991          -72.70858
     70       1.00000          -2.574576          -70.05777
     71       1.00000          -2.488363          -67.71181
     72       1.00000          -2.485431          -67.63201
     73       1.00000          -2.468343          -67.16704
     74       1.00000          -2.338376          -63.63045
     75       1.00000          -2.148117          -58.45324
     76       1.00000          -2.106718          -57.32672
     77       1.00000          -2.101293          -57.17910
     78       1.00000          -2.098186          -57.09455
     79       1.00000          -2.088276          -56.82489
     80       1.00000          -2.062977          -56.13647
     81       1.00000          -2.061979          -56.10932
     82       1.00000          -2.042049          -55.56699
     83       1.00000          -1.908192          -51.92455
     84       1.00000          -1.887549          -51.36283
     85       1.00000          -1.872045          -50.94094
     86       1.00000          -1.790148          -48.71242
     87       1.00000          -1.727183          -46.99904
     88       1.00000          -1.527294          -41.55980
     89       1.00000          -1.505522          -40.96733
     90       1.00000          -1.503544          -40.91351
     91       1.00000          -1.481924          -40.32519
     92       1.00000          -1.463962          -39.83643
     93       1.00000          -1.406018          -38.25970
     94       1.00000          -1.377630          -37.48722
     95       1.00000          -1.324446          -36.04000
     96       1.00000          -1.260729          -34.30618
     97       1.00000          -1.260129          -34.28986
     98       1.00000          -1.256201          -34.18296
     99       1.00000          -1.246785          -33.92675
    100       1.00000          -1.180747          -32.12976
    101       1.00000          -1.170933          -31.86271
    102       1.00000          -1.165528          -31.71564
    103       1.00000          -1.165321          -31.71001
    104       1.00000          -1.139193          -30.99902
    105       1.00000          -1.136558          -30.92731
    106       1.00000          -1.122695          -30.55008
    107       1.00000          -1.084613          -29.51381
    108       1.00000          -1.073560          -29.21304
    109       1.00000          -1.048728          -28.53733
    110       1.00000          -0.970995          -26.42211
    111       1.00000          -0.957583          -26.05717
    112       1.00000          -0.941106          -25.60880
    113       1.00000          -0.903945          -24.59760
    114       1.00000          -0.895926          -24.37939
    115       1.00000          -0.877019          -23.86489
    116       1.00000          -0.822898          -22.39218
    117       1.00000          -0.822808          -22.38974
    118       1.00000          -0.802200          -21.82898
    119       1.00000          -0.800238          -21.77557
    120       1.00000          -0.795829          -21.65560
    121       1.00000          -0.770636          -20.97007
    122       1.00000          -0.697492          -18.97972
    123       1.00000          -0.677815          -18.44429
    124       1.00000          -0.666504          -18.13649
    125       1.00000          -0.630646          -17.16074
    126       1.00000          -0.581151          -15.81392
    127       0.99994          -0.573916          -15.61704
    128       0.00000          -0.564748          -15.36757
    129       0.00000          -0.555460          -15.11482
    130       0.00000          -0.550108          -14.96920
    131       0.00000          -0.497932          -13.54942
    132       0.00000          -0.396840          -10.79856
    133       0.00000          -0.391852          -10.66283
    134       0.00000          -0.358847           -9.76473
    135       0.00000          -0.323631           -8.80646
    136       0.00000          -0.305741           -8.31965
    137       0.00000          -0.244559           -6.65478
    138       0.00000          -0.212872           -5.79253
    139       0.00000          -0.205686           -5.59700
    140       0.00000          -0.187346           -5.09794
    141       0.00000          -0.147735           -4.02008
    142       0.00000          -0.132512           -3.60582
    143       0.00000          -0.129217           -3.51616
    144       0.00000          -0.122432           -3.33153
    145       0.00000          -0.086397           -2.35100
    146       0.00000           0.006684            0.18187
    147       0.00000           0.016546            0.45024
    148       0.00000           0.020185            0.54927
    149       0.00000           0.036166            0.98413
    150       0.00000           0.041614            1.13236
    151       0.00000           0.056199            1.52926
    152       0.00000           0.077786            2.11666
    153       0.00000           0.078512            2.13641
    154       0.00000           0.088474            2.40750
    155       0.00000           0.105895            2.88156
    156       0.00000           0.139446            3.79453
    157       0.00000           0.157610            4.28878
    158       0.00000           0.162860            4.43166
    159       0.00000           0.179410            4.88199
    160       0.00000           0.198055            5.38934
    161       0.00000           0.199201            5.42053
    162       0.00000           0.202689            5.51545
    163       0.00000           0.217188            5.90998
    164       0.00000           0.224310            6.10380
    165       0.00000           0.226783            6.17108
    166       0.00000           0.273286            7.43648
    167       0.00000           0.284708            7.74730
    168       0.00000           0.305398            8.31031
    169       0.00000           0.339540            9.23935
    170       0.00000           0.345374            9.39811
    171       0.00000           0.359483            9.78203
    172       0.00000           0.401128           10.91525
    173       0.00000           0.424374           11.54781
    174       0.00000           0.440380           11.98334
    175       0.00000           0.464924           12.65123
    176       0.00000           0.466040           12.68159
    177       0.00000           0.498907           13.57595
    178       0.00000           0.504884           13.73858
    179       0.00000           0.509698           13.86958
    180       0.00000           0.514955           14.01263
    181       0.00000           0.524323           14.26755
    182       0.00000           0.536170           14.58992
    183       0.00000           0.556907           15.15421
    184       0.00000           0.570185           15.51551
    185       0.00000           0.576343           15.68310
    186       0.00000           0.580596           15.79882

  Spin-down eigenvalues:
  K-point:       1 at    0.000000    0.000000    0.000000 (in units of recip. lattice)

  State    Occupation    Eigenvalue [Ha]    Eigenvalue [eV]
      1       1.00000        -597.644226       -16262.72682
      2       1.00000        -596.313320       -16226.51104
      3       1.00000        -594.977108       -16190.15086
      4       1.00000        -180.998396        -4925.21695
      5       1.00000        -179.671072        -4889.09863
      6       1.00000        -178.328795        -4852.57340
      7       1.00000         -80.555516        -2192.02712
      8       1.00000         -79.224648        -2155.81236
      9       1.00000         -77.888397        -2119.45111
     10       1.00000         -71.671351        -1950.27669
     11       1.00000         -71.671349        -1950.27664
     12       1.00000         -71.671278        -1950.27470
     13       1.00000         -70.340467        -1914.06150
     14       1.00000         -70.340467        -1914.06150
     15       1.00000         -70.340410        -1914.05995
     16       1.00000         -69.004229        -1877.70060
     17       1.00000         -69.004228        -1877.70059
     18       1.00000         -69.004154        -1877.69856
     19       1.00000         -20.768375         -565.13623
     20       1.00000         -20.664429         -562.30773
     21       1.00000         -20.664427         -562.30767
     22       1.00000         -20.053996         -545.69700
     23       1.00000         -19.441281         -529.02417
     24       1.00000         -19.401040         -527.92915
     25       1.00000         -19.401037         -527.92907
     26       1.00000         -18.734373         -509.78824
     27       1.00000         -18.098615         -492.48837
     28       1.00000         -18.067530         -491.64251
     29       1.00000         -18.067527         -491.64244
     30       1.00000         -17.386875         -473.12095
     31       1.00000         -17.357355         -472.31767
     32       1.00000         -17.357283         -472.31571
     33       1.00000         -17.356687         -472.29950
     34       1.00000         -16.030122         -436.20181
     35       1.00000         -16.030119         -436.20174
     36       1.00000         -16.029581         -436.18709
     37       1.00000         -14.687591         -399.66969
     38       1.00000         -14.687504         -399.66731
     39       1.00000         -14.686759         -399.64703
     40       1.00000         -13.275542         -361.24587
     41       1.00000         -11.944992         -325.03978
     42       1.00000         -10.608492         -288.67174
     43       1.00000         -10.418701         -283.50727
     44       1.00000         -10.418681         -283.50675
     45       1.00000         -10.417015         -283.46140
     46       1.00000          -9.088060         -247.29869
     47       1.00000          -9.088059         -247.29868
     48       1.00000          -9.086532         -247.25710
     49       1.00000          -7.751565         -210.93081
     50       1.00000          -7.751562         -210.93074
     51       1.00000          -7.749804         -210.88290
     52       1.00000          -5.709335         -155.35891
     53       1.00000          -5.709325         -155.35862
     54       1.00000          -5.708727         -155.34237
     55       1.00000          -5.708702         -155.34169
     56       1.00000          -5.708516         -155.33663
     57       1.00000          -4.378671         -119.14969
     58       1.00000          -4.378663         -119.14949
     59       1.00000          -4.378193         -119.13669
     60       1.00000          -4.378180         -119.13633
     61       1.00000          -4.378030         -119.13225
     62       1.00000          -3.365101          -91.56905
     63       1.00000          -3.042163          -82.78146
     64       1.00000          -3.042155          -82.78126
     65       1.00000          -3.041525          -82.76410
     66       1.00000          -3.041516          -82.76385
     67       1.00000          -3.041318          -82.75848
     68       1.00000          -2.689468          -73.18414
     69       1.00000          -2.671991          -72.70858
     70       1.00000          -2.574576          -70.05777
     71       1.00000          -2.488363          -67.71181
     72       1.00000          -2.485431          -67.63201
     73       1.00000          -2.468343          -67.16704
     74       1.00000          -2.338376          -63.63045
     75       1.00000          -2.148117          -58.45324
     76       1.00000          -2.106718          -57.32672
     77       1.00000          -2.101293          -57.17910
     78       1.00000          -2.098186          -57.09455
     79       1.00000          -2.088276          -56.82489
     80       1.00000          -2.062977          -56.13647
     81       1.00000          -2.061979          -56.10932
     82       1.00000          -2.042049          -55.56699
     83       1.00000          -1.908192          -51.92455
     84       1.00000          -1.887549          -51.36283
     85       1.00000          -1.872045          -50.94094
     86       1.00000          -1.790148          -48.71242
     87       1.00000          -1.727183          -46.99904
     88       1.00000          -1.527294          -41.55980
     89       1.00000          -1.505522          -40.96733
     90       1.00000          -1.503544          -40.91351
     91       1.00000          -1.481924          -40.32519
     92       1.00000          -1.463962          -39.83643
     93       1.00000          -1.406018          -38.25970
     94       1.00000          -1.377630          -37.48722
     95       1.00000          -1.324446          -36.04000
     96       1.00000          -1.260729          -34.30618
     97       1.00000          -1.260129          -34.28986
     98       1.00000          -1.256201          -34.18296
     99       1.00000          -1.246785          -33.92675
    100       1.00000          -1.180747          -32.12976
    101       1.00000          -1.170933          -31.86271
    102       1.00000          -1.165528          -31.71564
    103       1.00000          -1.165321          -31.71001
    104       1.00000          -1.139193          -30.99902
    105       1.00000          -1.136558          -30.92731
    106       1.00000          -1.122695          -30.55008
    107       1.00000          -1.084613          -29.51381
    108       1.00000          -1.073560          -29.21304
    109       1.00000          -1.048728          -28.53733
    110       1.00000          -0.970995          -26.42211
    111       1.00000          -0.957583          -26.05717
    112       1.00000          -0.941106          -25.60880
    113       1.00000          -0.903945          -24.59760
    114       1.00000          -0.895926          -24.37939
    115       1.00000          -0.877019          -23.86489
    116       1.00000          -0.822898          -22.39218
    117       1.00000          -0.822808          -22.38974
    118       1.00000          -0.802200          -21.82898
    119       1.00000          -0.800238          -21.77557
    120       1.00000          -0.795829          -21.65560
    121       1.00000          -0.770636          -20.97007
    122       1.00000          -0.697492          -18.97972
    123       1.00000          -0.677815          -18.44429
    124       1.00000          -0.666504          -18.13649
    125       1.00000          -0.630646          -17.16074
    126       1.00000          -0.581151          -15.81392
    127       0.99994          -0.573916          -15.61704
    128       0.00000          -0.564748          -15.36757
    129       0.00000          -0.555460          -15.11482
    130       0.00000          -0.550108          -14.96920
    131       0.00000          -0.497932          -13.54942
    132       0.00000          -0.396840          -10.79856
    133       0.00000          -0.391852          -10.66283
    134       0.00000          -0.358847           -9.76473
    135       0.00000          -0.323631           -8.80646
    136       0.00000          -0.305741           -8.31965
    137       0.00000          -0.244559           -6.65478
    138       0.00000          -0.212872           -5.79253
    139       0.00000          -0.205686           -5.59700
    140       0.00000          -0.187346           -5.09794
    141       0.00000          -0.147735           -4.02008
    142       0.00000          -0.132512           -3.60582
    143       0.00000          -0.129217           -3.51616
    144       0.00000          -0.122432           -3.33153
    145       0.00000          -0.086397           -2.35100
    146       0.00000           0.006684            0.18187
    147       0.00000           0.016546            0.45024
    148       0.00000           0.020185            0.54927
    149       0.00000           0.036166            0.98413
    150       0.00000           0.041614            1.13236
    151       0.00000           0.056199            1.52926
    152       0.00000           0.077786            2.11666
    153       0.00000           0.078512            2.13641
    154       0.00000           0.088474            2.40750
    155       0.00000           0.105895            2.88156
    156       0.00000           0.139446            3.79453
    157       0.00000           0.157610            4.28878
    158       0.00000           0.162860            4.43166
    159       0.00000           0.179410            4.88199
    160       0.00000           0.198055            5.38934
    161       0.00000           0.199201            5.42053
    162       0.00000           0.202689            5.51545
    163       0.00000           0.217188            5.90998
    164       0.00000           0.224310            6.10380
    165       0.00000           0.226783            6.17108
    166       0.00000           0.273286            7.43648
    167       0.00000           0.284708            7.74730
    168       0.00000           0.305398            8.31031
    169       0.00000           0.339540            9.23935
    170       0.00000           0.345374            9.39811
    171       0.00000           0.359483            9.78203
    172       0.00000           0.401128           10.91525
    173       0.00000           0.424374           11.54781
    174       0.00000           0.440380           11.98334
    175       0.00000           0.464924           12.65123
    176       0.00000           0.466040           12.68159
    177       0.00000           0.498907           13.57595
    178       0.00000           0.504884           13.73858
    179       0.00000           0.509698           13.86958
    180       0.00000           0.514955           14.01263
    181       0.00000           0.524323           14.26755
    182       0.00000           0.536170           14.58992
    183       0.00000           0.556907           15.15421
    184       0.00000           0.570185           15.51551
    185       0.00000           0.576343           15.68310
    186       0.00000           0.580596           15.79882

  Current spin moment of the entire structure :
  | N = N_up - N_down (sum over all k points):         0.00000
  | S (sum over all k points)                :         0.00000

  What follows are estimated values for band gap, HOMO, LUMO, etc.
  | They are estimated on a discrete k-point grid and not necessarily exact.
  | For converged numbers, create a DOS and/or band structure plot on a denser k-grid.

  Highest occupied state (VBM) at    -15.58331493 eV (relative to internal zero)
  | Occupation number:      0.97317989
  | K-point:       5 at    0.125000    0.000000    0.000000 (in units of recip. lattice)
  | Spin channel:        2

  Lowest unoccupied state (CBM) at   -15.53963671 eV (relative to internal zero)
  | Occupation number:      0.29422533
  | K-point:      14 at    0.375000    0.000000    0.000000 (in units of recip. lattice)
  | Spin channel:        2

  ESTIMATED overall HOMO-LUMO gap:      0.04367822 eV between HOMO at k-point 5 and LUMO at k-point 14
  | This appears to be an indirect band gap.
  | Smallest direct gap :      0.11148144 eV for k_point 14 at    0.375000    0.000000    0.000000 (in units of recip. lattice)
  | Direct gap HOMO spin channel :     1
  | Direct gap LUMO spin channel :     2
  However, the gap value is rather small. Since we use a finite k-point grid,
  this material is most likely metallic (in the sense that there are states
  at or near the Fermi level). A DOS and/or band structure plot is required
  for an unambiguous distinction.
  Calculating total energy contributions from superposition of free atom densities.

  Total energy components:
  | Sum of eigenvalues            :       -7690.56714146 Ha     -209270.97950941 eV
  | XC energy correction          :        -519.22545092 Ha      -14128.84338716 eV
  | XC potential correction       :         674.10676843 Ha       18343.37846976 eV
  | Free-atom electrostatic energy:       -5355.68322532 Ha     -145735.55550431 eV
  | Hartree energy correction     :           0.00000000 Ha           0.00000000 eV
  | Ionic    embedding energy     :         -52.00468344 Ha       -1415.11943701 eV
  | Density  embedding energy     :          52.00463448 Ha        1415.11810473 eV
  | Nonlocal embedding energy     :           0.00000000 Ha           0.00000000 eV
  | External embedding energy     :          -0.00004896 Ha          -0.00133228 eV
  | Entropy correction            :          -0.00004265 Ha          -0.00116054 eV
  | ---------------------------
  | Total energy                  :      -12943.37368376 Ha     -352207.11803585 eV
  | Total energy, T -> 0          :      -12943.37372640 Ha     -352207.11919640 eV  <-- do not rely on this value for anything but (periodic) metals
  | Electronic free energy        :      -12943.37376905 Ha     -352207.12035694 eV

  Total energy including external embedding contributions:
  | Total energy + embedding      :      -12943.37373272 Ha     -352207.11936814 eV
  | Total energy + embedding, T->0:      -12943.37377537 Ha     -352207.12052868 eV  <-- do not rely on this value for anything but (periodic) metals
  | Elec. free energy + embedding :      -12943.37381801 Ha     -352207.12168922 eV

  Derived energy quantities:
  | Kinetic energy                :       13095.93485523 Ha      356358.51873261 eV
  | Electrostatic energy          :      -25468.07845358 Ha     -693021.67527658 eV
  | Energy correction for multipole
  | error in Hartree potential    :           0.00000000 Ha           0.00000000 eV
  | Sum of eigenvalues per atom                           :      -13951.39863396 eV
  | Total energy (T->0) per atom                          :      -23480.47461309 eV  <-- do not rely on this value for anything but (periodic) metals
  | Electronic free energy per atom                       :      -23480.47469046 eV
  Initialize hartree_potential_storage
  Max. number of atoms included in rho_multipole:           15

  End scf initialization - timings             :  max(cpu_time)    wall_clock(cpu1)
  | Time for scf. initialization               :       38.042 s          38.180 s
  | Boundary condition initialization          :       19.169 s          19.230 s
  | Integration                                :       15.993 s          16.040 s
  | Solution of K.-S. eqns.                    :        0.984 s           0.988 s
  | Grid partitioning                          :        0.668 s           0.670 s
  | Preloading free-atom quantities on grid    :        0.052 s           0.052 s
  | Free-atom superposition energy             :        0.368 s           0.365 s
  | Total energy evaluation                    :        0.004 s           0.001 s
------------------------------------------------------------

------------------------------------------------------------
          Begin self-consistency iteration #    1

  Date     :  20160728, Time     :  052425.828
------------------------------------------------------------
  Evaluating new KS density using the density matrix
  Evaluating density matrix
  Evaluating density matrix
  Time summed over all CPUs for getting density from density matrix: real work      373.379 s, elapsed      377.983 s
  Integration grid: deviation in total charge (<rho> - N_e) =  -1.956229E-08
  | <rho_up-rho_dn> = N_up-N_dn =     -0.0000; <|rho_up-rho_dn|> =      0.0000
  Pulay mixing of updated and previous charge densities.
  Renormalizing the density to the exact electron count on the 3D integration grid.
  | Formal number of electrons (from input files) :     252.0000000000
  | Integrated number of electrons on 3D grid     :     252.0004383873
  | Charge integration error                      :       0.0004383873
  | Normalization factor for density and gradient :       0.9999982604

  Evaluating partitioned Hartree potential by multipole expansion.
  | Original multipole sum: apparent total charge =   0.306193E-12
  | Sum of charges compensated after spline to logarithmic grids =   0.134251E-04
  | Analytical far-field extrapolation by fixed multipoles:
  | Hartree multipole sum: apparent total charge =   0.306685E-12
  Summing up the Hartree potential.
  | Estimated reciprocal-space cutoff momentum G_max:         3.32253784 bohr^-1 .
  | Reciprocal lattice points for long-range Hartree potential:   22802
  | Dipole correction gradient                  :    -0.34969834 eV/Angstrom
  | Dipole correction potential jump            :    87.42458483 eV
  Time summed over all CPUs for potential: real work       56.910 s, elapsed       57.404 s
  | RMS charge density error from multipole expansion :   0.461558E-02
  | Average real-space part of the electrostatic potential :     -0.00682137 eV

  Integrating Hamiltonian matrix: batch-based integration.
  Time summed over all CPUs for integration: real work      136.222 s, elapsed      138.577 s

  Updating Kohn-Sham eigenvalues, eigenvectors, occupation numbers, and Fermi level.
  Solving generalized eigenproblem
  Determining occupation numbers for Kohn-Sham eigenstates.
  | Chemical potential (Fermi level) for spin channel 1 in eV               :  -12.0217085225
  | Error in electron count due to remaining E_F inaccuracy: 0.2418E-08
  | Maximum occupation number of highest empty state:  0.00E+00

  Determining occupation numbers for Kohn-Sham eigenstates.
  | Chemical potential (Fermi level) for spin channel 2 in eV               :  -12.0217085225
  | Error in electron count due to remaining E_F inaccuracy: 0.2418E-08
  | Maximum occupation number of highest empty state:  0.00E+00

  Fixed spin moments - chemical potentials:
  | Chemical potential, spin up:  -12.0217085225 eV.
  | Chemical potential, spin dn:  -12.0217085225 eV.
  | Fixed spin moment: Difference in chemical potentials between spin channels:  -0.0000000000 eV.

  Writing Kohn-Sham eigenvalues.

  Spin-up eigenvalues:
  K-point:       1 at    0.000000    0.000000    0.000000 (in units of recip. lattice)

  State    Occupation    Eigenvalue [Ha]    Eigenvalue [eV]
      1       1.00000        -596.961815       -16244.15748
      2       1.00000        -596.643883       -16235.50612
      3       1.00000        -596.623262       -16234.94497
      4       1.00000        -180.280781        -4905.68964
      5       1.00000        -180.132656        -4901.65896
      6       1.00000        -179.796589        -4892.51411
      7       1.00000         -79.861070        -2173.13028
      8       1.00000         -79.562483        -2165.00531
      9       1.00000         -79.513645        -2163.67636
     10       1.00000         -70.978808        -1931.43164
     11       1.00000         -70.978706        -1931.42887
     12       1.00000         -70.978323        -1931.41843
     13       1.00000         -70.677106        -1923.22191
     14       1.00000         -70.676858        -1923.21515
     15       1.00000         -70.676823        -1923.21420
     16       1.00000         -70.632426        -1922.00611
     17       1.00000         -70.632399        -1922.00536
     18       1.00000         -70.632184        -1921.99951
     19       1.00000         -20.046556         -545.49455
[...]
  | For converged numbers, create a DOS and/or band structure plot on a denser k-grid.

  Highest occupied state (VBM) at     -5.96626446 eV (relative to internal zero)
  | Occupation number:      0.50412227
  | K-point:      10 at    0.250000    0.000000    0.000000 (in units of recip. lattice)
  | Spin channel:        2

  Lowest unoccupied state (CBM) at    -5.96250641 eV (relative to internal zero)
  | Occupation number:      0.41985889
  | K-point:       2 at    0.000000    0.166667    0.000000 (in units of recip. lattice)
  | Spin channel:        2

  ESTIMATED overall HOMO-LUMO gap:      0.00375805 eV between HOMO at k-point 10 and LUMO at k-point 2
  | This appears to be an indirect band gap.
  | Smallest direct gap :      0.01966047 eV for k_point 5 at    0.000000    0.166667    0.000000 (in units of recip. lattice)
  | Direct gap HOMO spin channel :     1
  | Direct gap LUMO spin channel :     1
  However, the gap value is rather small. Since we use a finite k-point grid,
  this material is most likely metallic (in the sense that there are states
  at or near the Fermi level). A DOS and/or band structure plot is required
  for an unambiguous distinction.

  Writing energy levels:
  | Potential vacuum level, "upper" slab surface:    61.06639242 eV
  | Potential vacuum level, "lower" slab surface:   -61.25066750 eV

  Spin-up energy levels:
  | Work function-spin ("upper" slab surface)   :    67.03247423 eV
  | Work function-spin ("lower" slab surface)   :   -55.28458568 eV
  | VBM-spin (reference: upper vacuum level)    :    67.03265702 eV
  | CBM-spin (reference: upper vacuum level)    :    67.02889867 eV

  Spin-down energy levels:
  | Work function-spin ("upper" slab surface)   :    67.03247421 eV
  | Work function-spin ("lower" slab surface)   :   -55.28458570 eV
  | VBM-spin (reference: upper vacuum level)    :    67.03265688 eV
  | CBM-spin (reference: upper vacuum level)    :    67.02889883 eV

  Self-consistency cycle converged.

  End self-consistency iteration #    65       :  max(cpu_time)    wall_clock(cpu1)
  | Time for this iteration                    :       50.347 s          50.511 s
  | Charge density update                      :       31.602 s          31.689 s
  | Density mixing                             :        1.440 s           1.443 s
  | Hartree multipole update                   :        0.008 s           0.007 s
  | Hartree multipole summation                :        5.164 s           5.176 s
  | Integration                                :       11.529 s          11.562 s
  | Solution of K.-S. eqns.                    :        0.604 s           0.605 s
  | Total energy evaluation                    :        0.004 s           0.002 s
------------------------------------------------------------
  Obtaining max. number of non-zero basis functions in each batch .
  Evaluating KS electron density on previously omitted grid points, using the density matrix.
  Evaluating density matrix
  Evaluating density matrix

  Energy and forces in a compact form:
  | Total energy uncorrected      :         -0.350061874431290E+06 eV
  | Total energy corrected        :         -0.350061876295281E+06 eV  <-- do not rely on this value for anything but (periodic) metals
  | Electronic free energy        :         -0.350061878159272E+06 eV

  ------------------------------------ 
  Start decomposition of the XC Energy 
  ------------------------------------ 
  Hartree-Fock part   :          0.000000000 Ha              0.000000000 eV
  ------------------------------------ 
  X Energy            :       -508.947457320 Ha         -13849.164951422 eV
  C Energy GGA        :        -10.988175089 Ha           -299.003457303 eV
  Total XC Energy     :       -519.935632409 Ha         -14148.168408726 eV
  LDA X and C from self-consistent density 
  X Energy LDA        :       -478.346955676 Ha         -13016.482935312 eV
  C Energy LDA        :        -20.922332607 Ha           -569.325637197 eV
  ------------------------------------ 
  End decomposition of the XC Energy 
  ------------------------------------ 
  Performing Hirshfeld analysis of fragment charges and moments.
  ----------------------------------------------------------------------
  | Atom     1: O
  |   Hirshfeld charge        :     -0.60653203
  |   Free atom volume        :     23.74229847
  |   Hirshfeld volume        :     34.05996204
  |   Hirshfeld spin moment   :      0.00000005
  |   Hirshfeld dipole vector :      0.00000001       0.01574349      -0.29331204
  |   Hirshfeld dipole moment :      0.29373425
  |   Hirshfeld second moments:     -0.23846740       0.00000000      -0.00000000
  |                                  0.00000000      -0.20938963       0.03313944
  |                                 -0.00000000       0.03313944      -0.44771891
  ----------------------------------------------------------------------
  | Atom     2: O
  |   Hirshfeld charge        :     -0.60652958
  |   Free atom volume        :     23.74229847
  |   Hirshfeld volume        :     34.05984472
  |   Hirshfeld spin moment   :      0.00000005
  |   Hirshfeld dipole vector :      0.00000000      -0.01574191      -0.29330757
  |   Hirshfeld dipole moment :      0.29372970
  |   Hirshfeld second moments:     -0.23846372      -0.00000000       0.00000000
  |                                 -0.00000000      -0.20938751      -0.03313975
  |                                  0.00000000      -0.03313975      -0.44771478
  ----------------------------------------------------------------------
  | Atom     3: Sr
  |   Hirshfeld charge        :     -0.10156772
  |   Free atom volume        :    262.05823641
  |   Hirshfeld volume        :    378.79343082
  |   Hirshfeld spin moment   :     -0.00000000
  |   Hirshfeld dipole vector :     -0.00000003      -0.00000154      -1.35276774
  |   Hirshfeld dipole moment :      1.35276774
  |   Hirshfeld second moments:     -0.21875317      -0.00000001       0.00000002
  |                                 -0.00000001      -0.26971797      -0.00000871
  |                                  0.00000002      -0.00000871      -3.71418502
  ----------------------------------------------------------------------
  | Atom     4: Ti
  |   Hirshfeld charge        :      0.29015271
  |   Free atom volume        :    152.91518024
  |   Hirshfeld volume        :    170.18999893
  |   Hirshfeld spin moment   :      0.00000000
  |   Hirshfeld dipole vector :      0.00000002      -0.00000089      -0.36248659
  |   Hirshfeld dipole moment :      0.36248659
  |   Hirshfeld second moments:      0.02255971      -0.00000001      -0.00000001
  |                                 -0.00000001       0.07703550       0.00000187
  |                                 -0.00000001       0.00000187      -0.64728391
  ----------------------------------------------------------------------
  | Atom     5: O
  |   Hirshfeld charge        :     -0.32302291
  |   Free atom volume        :     23.74229847
  |   Hirshfeld volume        :     23.99725470
  |   Hirshfeld spin moment   :     -0.00000000
  |   Hirshfeld dipole vector :     -0.00000001      -0.00000062      -0.00955710
  |   Hirshfeld dipole moment :      0.00955710
  |   Hirshfeld second moments:     -0.04300469       0.00000000       0.00000000
  |                                  0.00000000      -0.01588389       0.00000011
  |                                  0.00000000       0.00000011      -0.04057534
  ----------------------------------------------------------------------
  | Atom     6: O
  |   Hirshfeld charge        :     -0.29156545
  |   Free atom volume        :     23.74229847
  |   Hirshfeld volume        :     23.01697587
  |   Hirshfeld spin moment   :      0.00000000
  |   Hirshfeld dipole vector :      0.00000002      -0.00201089       0.01073938
  |   Hirshfeld dipole moment :      0.01092602
  |   Hirshfeld second moments:      0.00150018       0.00000000      -0.00000000
  |                                  0.00000000      -0.01292147       0.01646432
  |                                 -0.00000000       0.01646432      -0.01185057
  ----------------------------------------------------------------------
  | Atom     7: O
  |   Hirshfeld charge        :     -0.29156548
  |   Free atom volume        :     23.74229847
  |   Hirshfeld volume        :     23.01698097
  |   Hirshfeld spin moment   :      0.00000000
  |   Hirshfeld dipole vector :      0.00000008       0.00201227       0.01074022
  |   Hirshfeld dipole moment :      0.01092710
  |   Hirshfeld second moments:      0.00149992      -0.00000000      -0.00000000
  |                                 -0.00000000      -0.01292216      -0.01646400
  |                                 -0.00000000      -0.01646400      -0.01185082
  ----------------------------------------------------------------------
  | Atom     8: Sr
  |   Hirshfeld charge        :      0.41109052
  |   Free atom volume        :    262.05823641
  |   Hirshfeld volume        :    239.38220389
  |   Hirshfeld spin moment   :     -0.00000000
  |   Hirshfeld dipole vector :     -0.00000004      -0.00000247      -0.01831739
  |   Hirshfeld dipole moment :      0.01831739
  |   Hirshfeld second moments:      0.45930843       0.00000001      -0.00000001
  |                                  0.00000001       0.44999904       0.00000012
  |                                 -0.00000001       0.00000012       0.48076355
  ----------------------------------------------------------------------
  | Atom     9: Ti
  |   Hirshfeld charge        :      0.47311360
  |   Free atom volume        :    152.91518024
  |   Hirshfeld volume        :    139.83446954
  |   Hirshfeld spin moment   :     -0.00000001
  |   Hirshfeld dipole vector :      0.00000005      -0.00000009      -0.01805186
  |   Hirshfeld dipole moment :      0.01805186
  |   Hirshfeld second moments:      0.27587781       0.00000001       0.00000001
  |                                  0.00000001       0.28664758       0.00000000
  |                                  0.00000001       0.00000000       0.31087179
  ----------------------------------------------------------------------
  | Atom    10: O
  |   Hirshfeld charge        :     -0.29837827
  |   Free atom volume        :     23.74229847
  |   Hirshfeld volume        :     22.99414104
  |   Hirshfeld spin moment   :     -0.00000000
  |   Hirshfeld dipole vector :     -0.00000003       0.00000091       0.00825302
  |   Hirshfeld dipole moment :      0.00825302
  |   Hirshfeld second moments:     -0.02997498      -0.00000000      -0.00000000
  |                                 -0.00000000       0.00218396      -0.00000001
  |                                 -0.00000000      -0.00000001       0.00282035
  ----------------------------------------------------------------------
  | Atom    11: O
  |   Hirshfeld charge        :     -0.28127306
  |   Free atom volume        :     23.74229847
  |   Hirshfeld volume        :     22.64407294
  |   Hirshfeld spin moment   :     -0.00000000
  |   Hirshfeld dipole vector :      0.00000003      -0.00367004       0.00810963
  |   Hirshfeld dipole moment :      0.00890142
  |   Hirshfeld second moments:      0.00240417      -0.00000000       0.00000000
  |                                 -0.00000000      -0.00690989       0.01901566
  |                                  0.00000000       0.01901566       0.00758029
  ----------------------------------------------------------------------
  | Atom    12: O
  |   Hirshfeld charge        :     -0.28127182
  |   Free atom volume        :     23.74229847
  |   Hirshfeld volume        :     22.64406356
  |   Hirshfeld spin moment   :     -0.00000000
  |   Hirshfeld dipole vector :      0.00000002       0.00367130       0.00811067
  |   Hirshfeld dipole moment :      0.00890288
  |   Hirshfeld second moments:      0.00240478       0.00000000       0.00000000
  |                                  0.00000000      -0.00690894      -0.01901627
  |                                  0.00000000      -0.01901627       0.00758082
  ----------------------------------------------------------------------
  | Atom    13: Sr
  |   Hirshfeld charge        :      1.03448372
  |   Free atom volume        :    262.05823641
  |   Hirshfeld volume        :    170.88974856
  |   Hirshfeld spin moment   :     -0.00000000
  |   Hirshfeld dipole vector :     -0.00000001       0.00000351      -0.92416562
  |   Hirshfeld dipole moment :      0.92416562
  |   Hirshfeld second moments:      1.65887028      -0.00000000      -0.00000001
  |                                 -0.00000000       1.30436929      -0.00000121
  |                                 -0.00000001      -0.00000121       2.08961382
  ----------------------------------------------------------------------
  | Atom    14: Ti
  |   Hirshfeld charge        :      1.07718065
  |   Free atom volume        :    152.91518024
  |   Hirshfeld volume        :    104.48927378
  |   Hirshfeld spin moment   :     -0.00000008
  |   Hirshfeld dipole vector :      0.00000001      -0.00000137      -0.77915622
  |   Hirshfeld dipole moment :      0.77915622
  |   Hirshfeld second moments:      0.66180767      -0.00000000       0.00000001
  |                                 -0.00000000       1.08504682      -0.00000016
  |                                  0.00000001      -0.00000016       1.42891796
  ----------------------------------------------------------------------
  | Atom    15: O
  |   Hirshfeld charge        :     -0.20246576
  |   Free atom volume        :     23.74229847
  |   Hirshfeld volume        :     20.94600390
  |   Hirshfeld spin moment   :     -0.00000000
  |   Hirshfeld dipole vector :     -0.00000000      -0.00000094      -0.07699973
  |   Hirshfeld dipole moment :      0.07699973
  |   Hirshfeld second moments:      0.01130455       0.00000000      -0.00000000
  |                                  0.00000000       0.05238141      -0.00000012
  |                                 -0.00000000      -0.00000012       0.08326562
  ----------------------------------------------------------------------


------------------------------------------------------------------------------
  Final output of selected total energy values:

  The following output summarizes some interesting total energy values
  at the end of a run (AFTER all relaxation, molecular dynamics, etc.).

  | Total energy of the DFT / Hartree-Fock s.c.f. calculation      :        -350061.874431290 eV
  | Final zero-broadening corrected energy (caution - metals only) :        -350061.876295281 eV
  | For reference only, the value of 1 Hartree used in FHI-aims is :             27.211384500 eV

  Before relying on these values, please be sure to understand exactly which
  total energy value is referred to by a given number. Different objects may
  all carry the same name 'total energy'. Definitions:

  Total energy of the DFT / Hartree-Fock s.c.f. calculation:
  | Note that this energy does not include ANY quantities calculated after the
  | s.c.f. cycle, in particular not ANY RPA, MP2, etc. many-body perturbation terms.

  Final zero-broadening corrected energy:
  | For metallic systems only, a broadening of the occupation numbers at the Fermi
  | level can be extrapolated back to zero broadening by an electron-gas inspired
  | formula. For all systems that are not real metals, this value can be
  | meaningless and should be avoided.

------------------------------------------------------------------------------
  Methods described in the following list of references were used in this FHI-aims run.
  If you publish the results, please make sure to cite these reference if they apply.
  FHI-aims is an academic code, and for our developers (often, Ph.D. students
  and postdocs), scientific credit in the community is essential.
  Thank you for helping us!

  For any use of FHI-aims, please cite:

    Volker Blum, Ralf Gehrke, Felix Hanke, Paula Havu, Ville Havu,
    Xinguo Ren, Karsten Reuter, and Matthias Scheffler
    'Ab initio molecular simulations with numeric atom-centered orbitals'
    Computer Physics Communications 180, 2175-2196 (2009)
    http://dx.doi.org/10.1016/j.cpc.2009.06.022


  For pseudopotentials or QM/MM embedding infrastructure used in your run, please cite:

    D. Berger, A. J. Logsdail, H. Oberhofer, M. R. Farrow, C. R. A. Catlow, P. Sherwood,
    A. A. Sokol, V. Blum, and K. Reuter,
    'Embedded-cluster calculations in a numeric atomic orbital'
    'density-functional theory framework'
    The Journal of Chemical Physics 141, (2014).
    http://dx.doi.org/10.1063/1.4885816


  For the real-space grid partitioning and parallelization used in this calculation, please cite:

    Ville Havu, Volker Blum, Paula Havu, and Matthias Scheffler,
    'Efficient O(N) integration for all-electron electronic structure calculation'
    'using numerically tabulated basis functions'
    Journal of Computational Physics 228, 8367-8379 (2009).
    http://dx.doi.org/10.1016/j.jcp.2009.08.008


  The high-level electronic structure method used in your calculation
  employed our efficient localized resolution of identity for the Coulomb operator.
  Some calculations, especially large-scale hybrid density functional theory,
  are only possible thanks to this development. For this feature, please cite:

    Arvid Ihrig, Jrgen Wieferink, Igor Ying Zhang, Matti Ropo, Xinguo Ren,
    Patrick Rinke, Matthias Scheffler, and Volker Blum,
    'Accurate localized resolution of identity approach for linear-scaling
    hybrid density functionals and for many-body perturbation theory'
    New Journal of Physics 117, 093020 (2015).
    http://dx.doi.org/10.1088/1367-2630/17/9/093020

  Of course, there are many other important community references, e.g., those cited in the
  above references. Our list is limited to references that describe implementations in the
  FHI-aims code. The reason is purely practical (length of this list) - please credit others as well.

   One or more s.c.f. cycles took more than 50 s.c.f. iterations.
   It might be worth adjusting your convergence settings. For example,
   metals need a larger broadening and a smaller "charge_mix_param" value than semiconductors.

------------------------------------------------------------
          Leaving FHI-aims.
          Date     :  20160728, Time     :  061914.783

          Computational steps:
          | Number of self-consistency cycles          :           65

          Detailed time accounting                     :  max(cpu_time)    wall_clock(cpu1)
          | Total time                                 :     3318.923 s        3328.447 s
          | Preparation time                           :        0.924 s           0.948 s
          | Grid partitioning                          :        0.668 s           0.670 s
          | Preloading free-atom quantities on grid    :        0.052 s           0.052 s
          | Free-atom superposition energy             :        0.368 s           0.365 s
          | Total time for integrations                :      767.388 s         769.483 s
          | Total time for solution of K.-S. equations :       40.263 s          40.374 s
          | Total time for density update              :     2053.580 s        2059.261 s
          | Total time for mixing & preconditioning    :       94.706 s          94.893 s
          | Total time for Hartree multipole update    :        0.524 s           0.505 s
          | Total time for Hartree multipole sum       :      335.125 s         335.941 s
          | Total time for total energy evaluation     :        0.052 s           0.137 s
          | Total time for scaled ZORA corrections     :        0.000 s           0.000 s
          | Total time for QM/MM embedding             :        0.000 s           0.000 s

          Have a nice day.
------------------------------------------------------------
