<?xml version="1.0" encoding="ISO-8859-1"?>
<modeling>
 <generator>
  <i name="program" type="string">vasp </i>
  <i name="version" type="string">5.4.1  </i>
  <i name="subversion" type="string">24Jun15 (build Apr 19 2016 10:17:20) complex                          parallel </i>
  <i name="platform" type="string">IFC91_ompi </i>
  <i name="date" type="string">2016 08 03 </i>
  <i name="time" type="string">12:33:22 </i>
 </generator>
 <incar>
  <i type="string" name="PREC">accurate</i>
  <i type="int" name="ISPIN">     1</i>
  <i type="int" name="ICHARG">    11</i>
  <i type="int" name="NELM">   800</i>
  <i type="int" name="IBRION">    -1</i>
  <i name="EDIFF">      0.00000000</i>
  <i type="int" name="NSW">     0</i>
  <i type="int" name="ISIF">     3</i>
  <i type="int" name="ISYM">     0</i>
  <i type="int" name="NEDOS">  1000</i>
  <i name="EMIN">    -20.00000000</i>
  <i name="EMAX">     10.00000000</i>
  <i type="int" name="ISMEAR">    -1</i>
  <i name="SIGMA">      0.10000000</i>
  <i type="int" name="NWRITE">     3</i>
  <i type="logical" name="LWAVE"> F  </i>
  <i type="logical" name="LCHARG"> T  </i>
  <i type="logical" name="LVTOT"> T  </i>
  <i type="logical" name="LORBIT"> F  </i>
  <v type="int" name="KPOINT_BSE">    -1     0     0     0</v>
  <i type="int" name="NELM">   800</i>
 </incar>
 <kpoints>
  <generation param="listgenerated">
   <i name="divisions" type="int">      20 </i>
   <v>       0.00000000       0.00000000       0.00000000 </v>
   <v>       0.50000000      -0.50000000       0.50000000 </v>
   <v>       0.00000000       0.00000000       0.50000000 </v>
   <v>       0.00000000       0.00000000       0.00000000 </v>
   <v>       0.25000000       0.25000000       0.25000000 </v>
   <v>       0.25000000       0.25000000       0.25000000 </v>
   <v>       0.00000000       0.00000000       0.50000000 </v>
  </generation>
  <varray name="kpointlist" >
   <v>       0.00000000       0.00000000       0.00000000 </v>
   <v>       0.02631579      -0.02631579       0.02631579 </v>
   <v>       0.05263158      -0.05263158       0.05263158 </v>
   <v>       0.07894737      -0.07894737       0.07894737 </v>
   <v>       0.10526316      -0.10526316       0.10526316 </v>
   <v>       0.13157895      -0.13157895       0.13157895 </v>
   <v>       0.15789474      -0.15789474       0.15789474 </v>
   <v>       0.18421053      -0.18421053       0.18421053 </v>
   <v>       0.21052632      -0.21052632       0.21052632 </v>
   <v>       0.23684211      -0.23684211       0.23684211 </v>
   <v>       0.26315789      -0.26315789       0.26315789 </v>
   <v>       0.28947368      -0.28947368       0.28947368 </v>
   <v>       0.31578947      -0.31578947       0.31578947 </v>
   <v>       0.34210526      -0.34210526       0.34210526 </v>
   <v>       0.36842105      -0.36842105       0.36842105 </v>
   <v>       0.39473684      -0.39473684       0.39473684 </v>
   <v>       0.42105263      -0.42105263       0.42105263 </v>
   <v>       0.44736842      -0.44736842       0.44736842 </v>
   <v>       0.47368421      -0.47368421       0.47368421 </v>
   <v>       0.50000000      -0.50000000       0.50000000 </v>
   <v>       0.50000000      -0.50000000       0.50000000 </v>
   <v>       0.47368421      -0.47368421       0.50000000 </v>
   <v>       0.44736842      -0.44736842       0.50000000 </v>
   <v>       0.42105263      -0.42105263       0.50000000 </v>
   <v>       0.39473684      -0.39473684       0.50000000 </v>
   <v>       0.36842105      -0.36842105       0.50000000 </v>
   <v>       0.34210526      -0.34210526       0.50000000 </v>
   <v>       0.31578947      -0.31578947       0.50000000 </v>
   <v>       0.28947368      -0.28947368       0.50000000 </v>
   <v>       0.26315789      -0.26315789       0.50000000 </v>
   <v>       0.23684211      -0.23684211       0.50000000 </v>
   <v>       0.21052632      -0.21052632       0.50000000 </v>
   <v>       0.18421053      -0.18421053       0.50000000 </v>
   <v>       0.15789474      -0.15789474       0.50000000 </v>
   <v>       0.13157895      -0.13157895       0.50000000 </v>
   <v>       0.10526316      -0.10526316       0.50000000 </v>
   <v>       0.07894737      -0.07894737       0.50000000 </v>
   <v>       0.05263158      -0.05263158       0.50000000 </v>
   <v>       0.02631579      -0.02631579       0.50000000 </v>
   <v>       0.00000000       0.00000000       0.50000000 </v>
   <v>       0.00000000       0.00000000       0.50000000 </v>
   <v>       0.00000000       0.00000000       0.47368421 </v>
   <v>       0.00000000       0.00000000       0.44736842 </v>
   <v>       0.00000000       0.00000000       0.42105263 </v>
   <v>       0.00000000       0.00000000       0.39473684 </v>
   <v>       0.00000000       0.00000000       0.36842105 </v>
   <v>       0.00000000       0.00000000       0.34210526 </v>
   <v>       0.00000000       0.00000000       0.31578947 </v>
   <v>       0.00000000       0.00000000       0.28947368 </v>
   <v>       0.00000000       0.00000000       0.26315789 </v>
   <v>       0.00000000       0.00000000       0.23684211 </v>
   <v>       0.00000000       0.00000000       0.21052632 </v>
   <v>       0.00000000       0.00000000       0.18421053 </v>
   <v>       0.00000000       0.00000000       0.15789474 </v>
   <v>       0.00000000       0.00000000       0.13157895 </v>
   <v>       0.00000000       0.00000000       0.10526316 </v>
   <v>       0.00000000       0.00000000       0.07894737 </v>
   <v>       0.00000000       0.00000000       0.05263158 </v>
   <v>       0.00000000       0.00000000       0.02631579 </v>
   <v>       0.00000000       0.00000000       0.00000000 </v>
   <v>       0.00000000       0.00000000       0.00000000 </v>
   <v>       0.01315789       0.01315789       0.01315789 </v>
   <v>       0.02631579       0.02631579       0.02631579 </v>
   <v>       0.03947368       0.03947368       0.03947368 </v>
   <v>       0.05263158       0.05263158       0.05263158 </v>
   <v>       0.06578947       0.06578947       0.06578947 </v>
   <v>       0.07894737       0.07894737       0.07894737 </v>
   <v>       0.09210526       0.09210526       0.09210526 </v>
   <v>       0.10526316       0.10526316       0.10526316 </v>
   <v>       0.11842105       0.11842105       0.11842105 </v>
   <v>       0.13157895       0.13157895       0.13157895 </v>
   <v>       0.14473684       0.14473684       0.14473684 </v>
   <v>       0.15789474       0.15789474       0.15789474 </v>
   <v>       0.17105263       0.17105263       0.17105263 </v>
   <v>       0.18421053       0.18421053       0.18421053 </v>
   <v>       0.19736842       0.19736842       0.19736842 </v>
   <v>       0.21052632       0.21052632       0.21052632 </v>
   <v>       0.22368421       0.22368421       0.22368421 </v>
   <v>       0.23684211       0.23684211       0.23684211 </v>
   <v>       0.25000000       0.25000000       0.25000000 </v>
   <v>       0.25000000       0.25000000       0.25000000 </v>
   <v>       0.26315789       0.21052632       0.26315789 </v>
   <v>       0.27631579       0.17105263       0.27631579 </v>
   <v>       0.28947368       0.13157895       0.28947368 </v>
   <v>       0.30263158       0.09210526       0.30263158 </v>
   <v>       0.31578947       0.05263158       0.31578947 </v>
   <v>       0.32894737       0.01315789       0.32894737 </v>
   <v>       0.34210526      -0.02631579       0.34210526 </v>
   <v>       0.35526316      -0.06578947       0.35526316 </v>
   <v>       0.36842105      -0.10526316       0.36842105 </v>
   <v>       0.38157895      -0.14473684       0.38157895 </v>
   <v>       0.39473684      -0.18421053       0.39473684 </v>
   <v>       0.40789474      -0.22368421       0.40789474 </v>
   <v>       0.42105263      -0.26315789       0.42105263 </v>
   <v>       0.43421053      -0.30263158       0.43421053 </v>
   <v>       0.44736842      -0.34210526       0.44736842 </v>
   <v>       0.46052632      -0.38157895       0.46052632 </v>
   <v>       0.47368421      -0.42105263       0.47368421 </v>
   <v>       0.48684211      -0.46052632       0.48684211 </v>
   <v>       0.50000000      -0.50000000       0.50000000 </v>
   <v>       0.25000000       0.25000000       0.25000000 </v>
   <v>       0.23684211       0.23684211       0.26315789 </v>
   <v>       0.22368421       0.22368421       0.27631579 </v>
   <v>       0.21052632       0.21052632       0.28947368 </v>
   <v>       0.19736842       0.19736842       0.30263158 </v>
   <v>       0.18421053       0.18421053       0.31578947 </v>
   <v>       0.17105263       0.17105263       0.32894737 </v>
   <v>       0.15789474       0.15789474       0.34210526 </v>
   <v>       0.14473684       0.14473684       0.35526316 </v>
   <v>       0.13157895       0.13157895       0.36842105 </v>
   <v>       0.11842105       0.11842105       0.38157895 </v>
   <v>       0.10526316       0.10526316       0.39473684 </v>
   <v>       0.09210526       0.09210526       0.40789474 </v>
   <v>       0.07894737       0.07894737       0.42105263 </v>
   <v>       0.06578947       0.06578947       0.43421053 </v>
   <v>       0.05263158       0.05263158       0.44736842 </v>
   <v>       0.03947368       0.03947368       0.46052632 </v>
   <v>       0.02631579       0.02631579       0.47368421 </v>
   <v>       0.01315789       0.01315789       0.48684211 </v>
   <v>       0.00000000       0.00000000       0.50000000 </v>
  </varray>
  <varray name="weights" >
   <v>       0.00833333 </v>
   <v>       0.00833333 </v>
   <v>       0.00833333 </v>
   <v>       0.00833333 </v>
   <v>       0.00833333 </v>
   <v>       0.00833333 </v>
   <v>       0.00833333 </v>
   <v>       0.00833333 </v>
   <v>       0.00833333 </v>
   <v>       0.00833333 </v>
   <v>       0.00833333 </v>
   <v>       0.00833333 </v>
   <v>       0.00833333 </v>
   <v>       0.00833333 </v>
   <v>       0.00833333 </v>
   <v>       0.00833333 </v>
   <v>       0.00833333 </v>
   <v>       0.00833333 </v>
   <v>       0.00833333 </v>
   <v>       0.00833333 </v>
   <v>       0.00833333 </v>
   <v>       0.00833333 </v>
   <v>       0.00833333 </v>
   <v>       0.00833333 </v>
   <v>       0.00833333 </v>
   <v>       0.00833333 </v>
   <v>       0.00833333 </v>
   <v>       0.00833333 </v>
   <v>       0.00833333 </v>
   <v>       0.00833333 </v>
   <v>       0.00833333 </v>
   <v>       0.00833333 </v>
   <v>       0.00833333 </v>
   <v>       0.00833333 </v>
   <v>       0.00833333 </v>
   <v>       0.00833333 </v>
   <v>       0.00833333 </v>
   <v>       0.00833333 </v>
   <v>       0.00833333 </v>
   <v>       0.00833333 </v>
   <v>       0.00833333 </v>
   <v>       0.00833333 </v>
   <v>       0.00833333 </v>
   <v>       0.00833333 </v>
   <v>       0.00833333 </v>
   <v>       0.00833333 </v>
   <v>       0.00833333 </v>
   <v>       0.00833333 </v>
   <v>       0.00833333 </v>
   <v>       0.00833333 </v>
   <v>       0.00833333 </v>
   <v>       0.00833333 </v>
   <v>       0.00833333 </v>
   <v>       0.00833333 </v>
   <v>       0.00833333 </v>
   <v>       0.00833333 </v>
   <v>       0.00833333 </v>
   <v>       0.00833333 </v>
   <v>       0.00833333 </v>
   <v>       0.00833333 </v>
   <v>       0.00833333 </v>
   <v>       0.00833333 </v>
   <v>       0.00833333 </v>
   <v>       0.00833333 </v>
   <v>       0.00833333 </v>
   <v>       0.00833333 </v>
   <v>       0.00833333 </v>
   <v>       0.00833333 </v>
   <v>       0.00833333 </v>
   <v>       0.00833333 </v>
   <v>       0.00833333 </v>
   <v>       0.00833333 </v>
   <v>       0.00833333 </v>
   <v>       0.00833333 </v>
   <v>       0.00833333 </v>
   <v>       0.00833333 </v>
   <v>       0.00833333 </v>
   <v>       0.00833333 </v>
   <v>       0.00833333 </v>
   <v>       0.00833333 </v>
   <v>       0.00833333 </v>
   <v>       0.00833333 </v>
   <v>       0.00833333 </v>
   <v>       0.00833333 </v>
   <v>       0.00833333 </v>
   <v>       0.00833333 </v>
   <v>       0.00833333 </v>
   <v>       0.00833333 </v>
   <v>       0.00833333 </v>
   <v>       0.00833333 </v>
   <v>       0.00833333 </v>
   <v>       0.00833333 </v>
   <v>       0.00833333 </v>
   <v>       0.00833333 </v>
   <v>       0.00833333 </v>
   <v>       0.00833333 </v>
   <v>       0.00833333 </v>
   <v>       0.00833333 </v>
   <v>       0.00833333 </v>
   <v>       0.00833333 </v>
   <v>       0.00833333 </v>
   <v>       0.00833333 </v>
   <v>       0.00833333 </v>
   <v>       0.00833333 </v>
   <v>       0.00833333 </v>
   <v>       0.00833333 </v>
   <v>       0.00833333 </v>
   <v>       0.00833333 </v>
   <v>       0.00833333 </v>
   <v>       0.00833333 </v>
   <v>       0.00833333 </v>
   <v>       0.00833333 </v>
   <v>       0.00833333 </v>
   <v>       0.00833333 </v>
   <v>       0.00833333 </v>
   <v>       0.00833333 </v>
   <v>       0.00833333 </v>
   <v>       0.00833333 </v>
   <v>       0.00833333 </v>
   <v>       0.00833333 </v>
  </varray>
 </kpoints>
 <parameters>
  <separator name="general" >
   <i type="string" name="SYSTEM">unknown system</i>
   <i type="logical" name="LCOMPAT"> F  </i>
  </separator>
  <separator name="electronic" >
   <i type="string" name="PREC">accura</i>
   <i name="ENMAX">    207.26300000</i>
   <i name="ENAUG">    352.74500000</i>
   <i name="EDIFF">      0.00000000</i>
   <i type="int" name="IALGO">    38</i>
   <i type="int" name="IWAVPR">    10</i>
   <i type="int" name="NBANDS">    32</i>
   <i name="NELECT">     22.00000000</i>
   <i type="int" name="TURBO">     0</i>
   <i type="int" name="IRESTART">     0</i>
   <i type="int" name="NREBOOT">     0</i>
   <i type="int" name="NMIN">     0</i>
   <i name="EREF">      0.00000000</i>
   <separator name="electronic smearing" >
    <i type="int" name="ISMEAR">    -1</i>
    <i name="SIGMA">      0.10000000</i>
    <i name="KSPACING">      0.50000000</i>
    <i type="logical" name="KGAMMA"> T  </i>
   </separator>
   <separator name="electronic projectors" >
    <i type="logical" name="LREAL"> F  </i>
    <v name="ROPT">      0.00000000</v>
    <i type="int" name="LMAXPAW">  -100</i>
    <i type="int" name="LMAXMIX">     2</i>
    <i type="logical" name="NLSPLINE"> F  </i>
   </separator>
   <separator name="electronic startup" >
    <i type="int" name="ISTART">     0</i>
    <i type="int" name="ICHARG">    11</i>
    <i type="int" name="INIWAV">     1</i>
   </separator>
   <separator name="electronic spin" >
    <i type="int" name="ISPIN">     1</i>
    <i type="logical" name="LNONCOLLINEAR"> F  </i>
    <v name="MAGMOM">      1.00000000      1.00000000</v>
    <i name="NUPDOWN">     -1.00000000</i>
    <i type="logical" name="LSORBIT"> F  </i>
    <v name="SAXIS">      0.00000000      0.00000000      1.00000000</v>
    <i type="logical" name="LSPIRAL"> F  </i>
    <v name="QSPIRAL">      0.00000000      0.00000000      0.00000000</v>
    <i type="logical" name="LZEROZ"> F  </i>
   </separator>
   <separator name="electronic exchange-correlation" >
    <i type="logical" name="LASPH"> F  </i>
    <i type="logical" name="LMETAGGA"> F  </i>
   </separator>
   <separator name="electronic convergence" >
    <i type="int" name="NELM">   800</i>
    <i type="int" name="NELMDL">    -5</i>
    <i type="int" name="NELMIN">     2</i>
    <i name="ENINI">    207.26300000</i>
    <separator name="electronic convergence detail" >
     <i type="logical" name="LDIAG"> T  </i>
     <i type="logical" name="LSUBROT"> F  </i>
     <i name="WEIMIN">      0.00000000</i>
     <i name="EBREAK">      0.00000000</i>
     <i name="DEPER">      0.30000000</i>
     <i type="int" name="NRMM">     4</i>
     <i name="TIME">      0.40000000</i>
    </separator>
   </separator>
   <separator name="electronic mixer" >
    <i name="AMIX">      0.40000000</i>
    <i name="BMIX">      1.00000000</i>
    <i name="AMIN">      0.10000000</i>
    <i name="AMIX_MAG">      1.60000000</i>
    <i name="BMIX_MAG">      1.00000000</i>
    <separator name="electronic mixer details" >
     <i type="int" name="IMIX">     4</i>
     <i type="logical" name="MIXFIRST"> F  </i>
     <i type="int" name="MAXMIX">   -45</i>
     <i name="WC">    100.00000000</i>
     <i type="int" name="INIMIX">     1</i>
     <i type="int" name="MIXPRE">     1</i>
     <i type="int" name="MREMOVE">     5</i>
    </separator>
   </separator>
   <separator name="electronic dipolcorrection" >
    <i type="logical" name="LDIPOL"> F  </i>
    <i type="logical" name="LMONO"> F  </i>
    <i type="int" name="IDIPOL">     0</i>
    <i name="EPSILON">      1.00000000</i>
    <v name="DIPOL">   -100.00000000   -100.00000000   -100.00000000</v>
    <i name="EFIELD">      0.00000000</i>
   </separator>
  </separator>
  <separator name="grids" >
   <i type="int" name="NGX">    16</i>
   <i type="int" name="NGY">    16</i>
   <i type="int" name="NGZ">    16</i>
   <i type="int" name="NGXF">    32</i>
   <i type="int" name="NGYF">    32</i>
   <i type="int" name="NGZF">    32</i>
   <i type="logical" name="ADDGRID"> F  </i>
  </separator>
  <separator name="ionic" >
   <i type="int" name="NSW">     0</i>
   <i type="int" name="IBRION">    -1</i>
   <i type="int" name="ISIF">     3</i>
   <i name="PSTRESS">      0.00000000</i>
   <i name="EDIFFG">      0.00000000</i>
   <i type="int" name="NFREE">     0</i>
   <i name="POTIM">      0.50000000</i>
   <i name="SMASS">     -3.00000000</i>
   <i name="SCALEE">      1.00000000</i>
  </separator>
  <separator name="ionic md" >
   <i name="TEBEG">      0.00010000</i>
   <i name="TEEND">      0.00010000</i>
   <i type="int" name="NBLOCK">     1</i>
   <i type="int" name="KBLOCK">     1</i>
   <i type="int" name="NPACO">   256</i>
   <i name="APACO">     16.00000000</i>
  </separator>
  <separator name="symmetry" >
   <i type="int" name="ISYM">     0</i>
   <i name="SYMPREC">      0.00001000</i>
  </separator>
  <separator name="dos" >
   <i type="logical" name="LORBIT"> F  </i>
   <v name="RWIGS">     -1.00000000</v>
   <i type="int" name="NEDOS">  1000</i>
   <i name="EMIN">    -20.00000000</i>
   <i name="EMAX">     10.00000000</i>
   <i name="EFERMI">      0.00000000</i>
  </separator>
  <separator name="writing" >
   <i type="int" name="NWRITE">     3</i>
   <i type="logical" name="LWAVE"> F  </i>
   <i type="logical" name="LCHARG"> T  </i>
   <i type="logical" name="LPARD"> F  </i>
   <i type="logical" name="LVTOT"> T  </i>
   <i type="logical" name="LVHAR"> F  </i>
   <i type="logical" name="LELF"> F  </i>
   <i type="logical" name="LOPTICS"> F  </i>
   <v name="STM">      0.00000000      0.00000000      0.00000000      0.00000000      0.00000000      0.00000000      0.00000000</v>
  </separator>
  <separator name="performance" >
   <i type="int" name="NPAR">    32</i>
   <i type="int" name="NSIM">     4</i>
   <i type="int" name="NBLK">    -1</i>
   <i type="logical" name="LPLANE"> T  </i>
   <i type="logical" name="LSCALAPACK"> T  </i>
   <i type="logical" name="LSCAAWARE"> T  </i>
   <i type="logical" name="LSCALU"> F  </i>
   <i type="logical" name="LASYNC"> F  </i>
   <i type="logical" name="LORBITALREAL"> F  </i>
  </separator>
  <separator name="miscellaneous" >
   <i type="int" name="IDIOT">     3</i>
   <i type="logical" name="LMUSIC"> F  </i>
   <v name="POMASS">     92.91000000</v>
   <v name="DARWINR">      0.00000000</v>
   <v name="DARWINV">      1.00000000</v>
   <i type="logical" name="LCORR"> T  </i>
  </separator>
  <i type="logical" name="GGA_COMPAT"> T  </i>
  <i type="logical" name="LBERRY"> F  </i>
  <i type="int" name="ICORELEVEL">     0</i>
  <i type="logical" name="LDAU"> F  </i>
  <i type="int" name="I_CONSTRAINED_M">     0</i>
  <separator name="electronic exchange-correlation" >
   <i type="string" name="GGA">--</i>
   <i type="int" name="VOSKOWN">     0</i>
   <i type="logical" name="LHFCALC"> F  </i>
   <i type="string" name="PRECFOCK"></i>
   <i type="logical" name="LSYMGRAD"> F  </i>
   <i type="logical" name="LHFONE"> F  </i>
   <i type="logical" name="LRHFCALC"> F  </i>
   <i type="logical" name="LTHOMAS"> F  </i>
   <i type="logical" name="LMODELHF"> F  </i>
   <i name="ENCUT4O">     -1.00000000</i>
   <i type="int" name="EXXOEP">     0</i>
   <i type="int" name="FOURORBIT">     0</i>
   <i name="AEXX">      0.00000000</i>
   <i name="HFALPHA">      0.00000000</i>
   <i name="MCALPHA">      0.00000000</i>
   <i name="ALDAX">      1.00000000</i>
   <i name="AGGAX">      1.00000000</i>
   <i name="ALDAC">      1.00000000</i>
   <i name="AGGAC">      1.00000000</i>
   <i type="int" name="NKREDX">     1</i>
   <i type="int" name="NKREDY">     1</i>
   <i type="int" name="NKREDZ">     1</i>
   <i type="logical" name="SHIFTRED"> F  </i>
   <i type="logical" name="ODDONLY"> F  </i>
   <i type="logical" name="EVENONLY"> F  </i>
   <i type="int" name="LMAXFOCK">     0</i>
   <i type="int" name="NMAXFOCKAE">     0</i>
   <i type="logical" name="LFOCKAEDFT"> F  </i>
   <i name="HFSCREEN">      0.00000000</i>
   <i name="HFSCREENC">      0.00000000</i>
   <i type="int" name="NBANDSGWLOW">     0</i>
  </separator>
  <separator name="vdW DFT" >
   <i type="logical" name="LUSE_VDW"> F  </i>
   <i name="Zab_VDW">     -0.84910000</i>
   <i name="PARAM1">      0.12340000</i>
   <i name="PARAM2">      1.00000000</i>
   <i name="PARAM3">      0.00000000</i>
  </separator>
  <separator name="model GW" >
   <i type="int" name="MODEL_GW">     0</i>
   <i name="MODEL_EPS0">     11.00203665</i>
   <i name="MODEL_ALPHA">      1.00000000</i>
  </separator>
  <separator name="linear response parameters" >
   <i type="logical" name="LEPSILON"> F  </i>
   <i type="logical" name="LRPA"> F  </i>
   <i type="logical" name="LNABLA"> F  </i>
   <i type="logical" name="LVEL"> F  </i>
   <i type="int" name="KINTER">     0</i>
   <i name="CSHIFT">      0.10000000</i>
   <i name="OMEGAMAX">     -1.00000000</i>
   <i name="DEG_THRESHOLD">      0.00200000</i>
  </separator>
  <separator name="orbital magnetization" >
   <i type="logical" name="NUCIND"> F  </i>
   <v name="MAGPOS">      0.00000000      0.00000000      0.00000000</v>
   <i type="logical" name="LNICSALL"> T  </i>
   <i type="logical" name="ORBITALMAG"> F  </i>
   <i type="logical" name="LMAGBLOCH"> F  </i>
   <i type="logical" name="LCHIMAG"> F  </i>
   <i type="logical" name="LGAUGE"> T  </i>
   <i type="int" name="MAGATOM">     0</i>
   <v name="MAGDIPOL">      0.00000000      0.00000000      0.00000000</v>
   <v name="AVECCONST">      0.00000000      0.00000000      0.00000000</v>
  </separator>
  <separator name="response functions" >
   <i type="logical" name="LADDER"> F  </i>
   <i type="logical" name="LFXC"> F  </i>
   <i type="logical" name="LHARTREE"> T  </i>
   <i type="int" name="IBSE">     0</i>
   <v type="int" name="KPOINT">    -1     0     0     0</v>
   <i type="logical" name="LTCTE"> F  </i>
   <i type="logical" name="LTETE"> F  </i>
   <i type="logical" name="LTRIPLET"> F  </i>
   <i type="logical" name="LFXCEPS"> F  </i>
   <i type="logical" name="LFXHEG"> F  </i>
   <i type="int" name="NATURALO">     0</i>
   <i type="logical" name="L2ORDER"> F  </i>
   <i type="logical" name="LUSEW"> F  </i>
   <i name="ENCUTGW">     -2.00000000</i>
   <i name="ENCUTGWSOFT">     -2.00000000</i>
   <i name="ENCUTLF">     -1.00000000</i>
   <i type="int" name="LMAXMP2">    -1</i>
   <i name="SCISSOR">      0.00000000</i>
   <i type="int" name="NOMEGA">     0</i>
   <i type="int" name="NOMEGAR">     0</i>
   <i type="int" name="NBANDSGW">    -1</i>
   <i type="int" name="NBANDSO">    -1</i>
   <i type="int" name="NBANDSV">    -1</i>
   <i type="int" name="NELM">   800</i>
   <i type="int" name="NELMHF">     1</i>
   <i type="int" name="DIM">     3</i>
   <i type="int" name="ANTIRES">     0</i>
   <i name="OMEGAMAX">    -30.00000000</i>
   <i name="OMEGAMIN">    -30.00000000</i>
   <i name="OMEGATL">   -200.00000000</i>
   <i type="int" name="OMEGAGRID">     0</i>
   <i name="CSHIFT">     -0.10000000</i>
   <i type="logical" name="SELFENERGY"> F  </i>
   <i type="logical" name="LSPECTRAL"> F  </i>
   <i type="logical" name="LSPECTRALGW"> F  </i>
   <i type="logical" name="LSINGLES"> F  </i>
   <i type="logical" name="LFERMIGW"> F  </i>
   <i type="logical" name="ODDONLYGW"> F  </i>
   <i type="logical" name="EVENONLYGW"> F  </i>
   <i type="int" name="NKREDLFX">     1</i>
   <i type="int" name="NKREDLFY">     1</i>
   <i type="int" name="NKREDLFZ">     1</i>
   <i type="int" name="MAXMEM">  1800</i>
   <i type="int" name="TELESCOPE">     0</i>
   <i type="int" name="TAUPAR">     1</i>
   <i type="int" name="OMEGAPAR">    -1</i>
   <i name="LAMBDA">      1.00000000</i>
  </separator>
  <separator name="External order field" >
   <i name="OFIELD_KAPPA">      0.00000000</i>
   <v name="OFIELD_K">      0.00000000      0.00000000      0.00000000</v>
   <i name="OFIELD_Q6_NEAR">      0.00000000</i>
   <i name="OFIELD_Q6_FAR">      0.00000000</i>
   <i name="OFIELD_A">      0.00000000</i>
  </separator>
 </parameters>
 <atominfo>
  <atoms>       2 </atoms>
  <types>       1 </types>
  <array name="atoms" >
   <dimension dim="1">ion</dimension>
   <field type="string">element</field>
   <field type="int">atomtype</field>
   <set>
    <rc><c>Nb</c><c>   1</c></rc>
    <rc><c>Nb</c><c>   1</c></rc>
   </set>
  </array>
  <array name="atomtypes" >
   <dimension dim="1">type</dimension>
   <field type="int">atomspertype</field>
   <field type="string">element</field>
   <field>mass</field>
   <field>valence</field>
   <field type="string">pseudopotential</field>
   <set>
    <rc><c>   2</c><c>Nb</c><c>     92.91000000</c><c>     11.00000000</c><c>  PAW Nb_pv 09Jan2002                   </c></rc>
   </set>
  </array>
 </atominfo>
 <structure name="initialpos" >
  <crystal>
   <varray name="basis" >
    <v>       3.32239000       0.00000000       0.00000000 </v>
    <v>       0.00000000       3.32239000       0.00000000 </v>
    <v>       0.00000000       0.00000000       3.32239000 </v>
   </varray>
   <i name="volume">     36.67345551 </i>
   <varray name="rec_basis" >
    <v>       0.30098814      -0.00000000      -0.00000000 </v>
    <v>       0.00000000       0.30098814      -0.00000000 </v>
    <v>       0.00000000       0.00000000       0.30098814 </v>
   </varray>
  </crystal>
  <varray name="positions" >
   <v>       0.00000000       0.00000000       0.00000000 </v>
   <v>       0.50000000       0.50000000       0.50000000 </v>
  </varray>
 </structure>
 <calculation>
  <scstep>
   <time name="dav">    1.10    1.10</time>
   <time name="total">    1.10    1.11</time>
   <energy>
    <i name="alphaZ">    244.77073660 </i>
    <i name="ewald">  -1908.53773260 </i>
    <i name="hartreedc">   -244.12888036 </i>
    <i name="XCdc">     52.68449564 </i>
    <i name="pawpsdc">   3110.51429722 </i>
    <i name="pawaedc">  -3093.82979558 </i>
    <i name="eentropy">     -0.06625065 </i>
    <i name="bandstr">   -263.43008903 </i>
    <i name="atom">   2092.64788740 </i>
    <i name="e_fr_energy">     -9.37533135 </i>
    <i name="e_wo_entrp">     -9.30908071 </i>
    <i name="e_0_energy">     -9.34220603 </i>
   </energy>
  </scstep>
  <scstep>
   <time name="dav">    1.68    1.69</time>
   <time name="total">    1.69    1.71</time>
   <energy>
    <i name="e_fr_energy">    -22.77505701 </i>
    <i name="e_wo_entrp">    -22.67880506 </i>
    <i name="e_0_energy">    -22.72693103 </i>
   </energy>
  </scstep>
  <scstep>
   <time name="dav">    2.23    2.23</time>
   <time name="total">    2.24    2.24</time>
   <energy>
    <i name="e_fr_energy">    -22.79512227 </i>
    <i name="e_wo_entrp">    -22.69878090 </i>
    <i name="e_0_energy">    -22.74695158 </i>
   </energy>
  </scstep>
  <scstep>
   <time name="dav">    2.20    2.21</time>
   <time name="total">    2.21    2.22</time>
   <energy>
    <i name="e_fr_energy">    -22.79512635 </i>
    <i name="e_wo_entrp">    -22.69878485 </i>
    <i name="e_0_energy">    -22.74695560 </i>
   </energy>
  </scstep>
  <scstep>
   <time name="dav">    2.14    2.14</time>
   <time name="total">    2.15    2.16</time>
   <energy>
    <i name="e_fr_energy">    -22.79512635 </i>
    <i name="e_wo_entrp">    -22.69878485 </i>
    <i name="e_0_energy">    -22.74695560 </i>
   </energy>
  </scstep>
  <scstep>
   <time name="dav">    2.09    2.10</time>
   <time name="total">    2.10    2.11</time>
   <energy>
    <i name="alphaZ">    244.77073660 </i>
    <i name="ewald">  -1908.53773260 </i>
    <i name="hartreedc">   -244.12888036 </i>
    <i name="XCdc">     52.68449564 </i>
    <i name="pawpsdc">   3110.51429722 </i>
    <i name="pawaedc">  -3093.82979558 </i>
    <i name="eentropy">     -0.09634150 </i>
    <i name="bandstr">   -276.81979317 </i>
    <i name="atom">   2092.64788740 </i>
    <i name="e_fr_energy">    -22.79512635 </i>
    <i name="e_wo_entrp">    -22.69878485 </i>
    <i name="e_0_energy">    -22.74695560 </i>
   </energy>
  </scstep>
  <structure>
   <crystal>
    <varray name="basis" >
     <v>       3.32239000       0.00000000       0.00000000 </v>
     <v>       0.00000000       3.32239000       0.00000000 </v>
     <v>       0.00000000       0.00000000       3.32239000 </v>
    </varray>
    <i name="volume">     36.67345551 </i>
    <varray name="rec_basis" >
     <v>       0.30098814      -0.00000000      -0.00000000 </v>
     <v>       0.00000000       0.30098814      -0.00000000 </v>
     <v>       0.00000000       0.00000000       0.30098814 </v>
    </varray>
   </crystal>
   <varray name="positions" >
    <v>       0.00000000       0.00000000       0.00000000 </v>
    <v>       0.50000000       0.50000000       0.50000000 </v>
   </varray>
  </structure>
  <varray name="forces" >
   <v>       0.00000000       0.00000000      -0.00000000 </v>
   <v>      -0.00000000      -0.00000000       0.00000000 </v>
  </varray>
  <varray name="stress" >
   <v>    -227.71903778      69.57314000     224.34808821 </v>
   <v>      69.57313983    -131.82373769     107.28710788 </v>
   <v>     224.34808780     107.28710779     130.34603582 </v>
  </varray>
  <energy>
   <i name="e_fr_energy">    -22.79512635 </i>
   <i name="e_wo_entrp">    -22.74695560 </i>
   <i name="e_0_energy">     -0.09634150 </i>
  </energy>
  <time name="totalsc">   11.68   11.74</time>
  <eigenvalues>
   <array>
    <dimension dim="1">band</dimension>
    <dimension dim="2">kpoint</dimension>
    <dimension dim="3">spin</dimension>
    <field>eigene</field>
    <field>occ</field>
    <set>
     <set comment="spin 1">
      <set comment="kpoint 1">
       <r>  -25.8104    1.0000 </r>
       <r>  -25.8104    1.0000 </r>
       <r>  -25.8104    1.0000 </r>
       <r>  -24.9197    1.0000 </r>
       <r>  -24.9197    1.0000 </r>
       <r>  -24.9197    1.0000 </r>
       <r>   -1.2117    1.0000 </r>
       <r>    1.0482    1.0000 </r>
       <r>    1.0482    1.0000 </r>
       <r>    5.0126    0.2150 </r>
       <r>    5.0126    0.2150 </r>
       <r>    5.0126    0.2150 </r>
       <r>    7.8611    0.0000 </r>
       <r>    7.8611    0.0000 </r>
       <r>   10.1561    0.0000 </r>
       <r>   10.1561    0.0000 </r>
       <r>   10.1561    0.0000 </r>
       <r>   13.8807    0.0000 </r>
       <r>   13.8807    0.0000 </r>
       <r>   13.8807    0.0000 </r>
       <r>   20.1557    0.0000 </r>
       <r>   20.1557    0.0000 </r>
       <r>   20.1557    0.0000 </r>
       <r>   22.8043    0.0000 </r>
       <r>   25.4725    0.0000 </r>
       <r>   25.4725    0.0000 </r>
       <r>   29.6556    0.0000 </r>
       <r>   30.0185    0.0000 </r>
       <r>   30.0185    0.0000 </r>
       <r>   33.6401    0.0000 </r>
       <r>   33.6401    0.0000 </r>
       <r>   33.6401    0.0000 </r>
      </set>
      <set comment="kpoint 2">
       <r>  -25.8116    1.0000 </r>
       <r>  -25.8116    1.0000 </r>
       <r>  -25.7989    1.0000 </r>
       <r>  -24.9356    1.0000 </r>
       <r>  -24.9213    1.0000 </r>
       <r>  -24.9213    1.0000 </r>
       <r>   -1.1688    1.0000 </r>
       <r>    1.0780    1.0000 </r>
       <r>    1.0780    1.0000 </r>
       <r>    4.9938    0.2483 </r>
       <r>    4.9938    0.2483 </r>
       <r>    5.0611    0.1443 </r>
       <r>    7.8417    0.0000 </r>
       <r>    7.8417    0.0000 </r>
       <r>    9.8948    0.0000 </r>
       <r>   10.1046    0.0000 </r>
       <r>   10.1046    0.0000 </r>
       <r>   13.9441    0.0000 </r>
       <r>   13.9441    0.0000 </r>
       <r>   14.0429    0.0000 </r>
       <r>   20.1838    0.0000 </r>
       <r>   20.2395    0.0000 </r>
       <r>   20.2395    0.0000 </r>
       <r>   22.9330    0.0000 </r>
       <r>   25.4339    0.0000 </r>
       <r>   25.4339    0.0000 </r>
       <r>   29.7154    0.0000 </r>
       <r>   29.7677    0.0000 </r>
       <r>   29.7677    0.0000 </r>
       <r>   33.3465    0.0000 </r>
       <r>   33.9439    0.0000 </r>
       <r>   33.9439    0.0000 </r>
      </set>
      <set comment="kpoint 3">
       <r>  -25.8154    1.0000 </r>
       <r>  -25.8154    1.0000 </r>
       <r>  -25.7653    1.0000 </r>
       <r>  -24.9821    1.0000 </r>
       <r>  -24.9259    1.0000 </r>
       <r>  -24.9259    1.0000 </r>
       <r>   -1.0421    1.0000 </r>
       <r>    1.1666    1.0000 </r>
       <r>    1.1666    1.0000 </r>
       <r>    4.9364    0.3698 </r>
       <r>    4.9364    0.3698 </r>
       <r>    5.2068    0.0378 </r>
       <r>    7.7909    0.0000 </r>
       <r>    7.7909    0.0000 </r>
       <r>    9.2443    0.0000 </r>
       <r>    9.9623    0.0000 </r>
       <r>    9.9623    0.0000 </r>
       <r>   14.1203    0.0000 </r>
       <r>   14.1203    0.0000 </r>
       <r>   14.3994    0.0000 </r>
       <r>   20.2681    0.0000 </r>
       <r>   20.4757    0.0000 </r>
       <r>   20.4757    0.0000 </r>
       <r>   23.3134    0.0000 </r>
       <r>   25.3236    0.0000 </r>
       <r>   25.3236    0.0000 </r>
       <r>   29.2088    0.0000 </r>
       <r>   29.2088    0.0000 </r>
       <r>   29.8917    0.0000 </r>
       <r>   32.5631    0.0000 </r>
       <r>   34.6537    0.0000 </r>
       <r>   34.6537    0.0000 </r>
      </set>
      <set comment="kpoint 4">
       <r>  -25.8213    1.0000 </r>
       <r>  -25.8213    1.0000 </r>
       <r>  -25.7115    1.0000 </r>
       <r>  -25.0560    1.0000 </r>
       <r>  -24.9339    1.0000 </r>
       <r>  -24.9339    1.0000 </r>
       <r>   -0.8371    1.0000 </r>
       <r>    1.3116    1.0000 </r>
       <r>    1.3116    1.0000 </r>
       <r>    4.8377    0.6115 </r>
       <r>    4.8377    0.6115 </r>
       <r>    5.4499    0.0034 </r>
       <r>    7.7272    0.0000 </r>
       <r>    7.7272    0.0000 </r>
       <r>    8.4079    0.0000 </r>
       <r>    9.7574    0.0000 </r>
       <r>    9.7574    0.0000 </r>
       <r>   14.3762    0.0000 </r>
       <r>   14.3762    0.0000 </r>
       <r>   14.7614    0.0000 </r>
       <r>   20.4086    0.0000 </r>
       <r>   20.8173    0.0000 </r>
       <r>   20.8173    0.0000 </r>
       <r>   23.9208    0.0000 </r>
       <r>   25.1572    0.0000 </r>
       <r>   25.1572    0.0000 </r>
       <r>   28.6104    0.0000 </r>
       <r>   28.6104    0.0000 </r>
       <r>   30.1757    0.0000 </r>
       <r>   31.4656    0.0000 </r>
       <r>   35.4706    0.0000 </r>
       <r>   35.4706    0.0000 </r>
      </set>
      <set comment="kpoint 5">
       <r>  -25.8287    1.0000 </r>
       <r>  -25.8287    1.0000 </r>
       <r>  -25.6405    1.0000 </r>
       <r>  -25.1521    1.0000 </r>
       <r>  -24.9454    1.0000 </r>
       <r>  -24.9454    1.0000 </r>
       <r>   -0.5625    1.0000 </r>
       <r>    1.5088    1.0000 </r>
       <r>    1.5088    1.0000 </r>
       <r>    4.6975    0.8648 </r>
       <r>    4.6975    0.8648 </r>
       <r>    5.7941    0.0001 </r>
       <r>    7.5093    0.0000 </r>
       <r>    7.6712    0.0000 </r>
       <r>    7.6712    0.0000 </r>
       <r>    9.5193    0.0000 </r>
       <r>    9.5193    0.0000 </r>
       <r>   14.6734    0.0000 </r>
       <r>   14.6734    0.0000 </r>
       <r>   15.0378    0.0000 </r>
       <r>   20.6053    0.0000 </r>
       <r>   21.1834    0.0000 </r>
       <r>   21.1834    0.0000 </r>
       <r>   24.6963    0.0000 </r>
       <r>   24.9589    0.0000 </r>
       <r>   24.9589    0.0000 </r>
       <r>   28.1449    0.0000 </r>
       <r>   28.1449    0.0000 </r>
       <r>   30.1814    0.0000 </r>
       <r>   30.5538    0.0000 </r>
       <r>   36.1527    0.0000 </r>
       <r>   36.1527    0.0000 </r>
      </set>
      <set comment="kpoint 6">
       <r>  -25.8369    1.0000 </r>
       <r>  -25.8369    1.0000 </r>
       <r>  -25.5566    1.0000 </r>
       <r>  -25.2644    1.0000 </r>
       <r>  -24.9606    1.0000 </r>
       <r>  -24.9606    1.0000 </r>
       <r>   -0.2286    1.0000 </r>
       <r>    1.7521    1.0000 </r>
       <r>    1.7521    1.0000 </r>
       <r>    4.5192    0.9744 </r>
       <r>    4.5192    0.9744 </r>
       <r>    6.2297    0.0000 </r>
       <r>    6.6125    0.0000 </r>
       <r>    7.6427    0.0000 </r>
       <r>    7.6427    0.0000 </r>
       <r>    9.2718    0.0000 </r>
       <r>    9.2718    0.0000 </r>
       <r>   14.9764    0.0000 </r>
       <r>   14.9764    0.0000 </r>
       <r>   15.2077    0.0000 </r>
       <r>   20.8582    0.0000 </r>
       <r>   21.4611    0.0000 </r>
       <r>   21.4611    0.0000 </r>
       <r>   24.7598    0.0000 </r>
       <r>   24.7598    0.0000 </r>
       <r>   25.5308    0.0000 </r>
       <r>   27.9454    0.0000 </r>
       <r>   27.9454    0.0000 </r>
       <r>   28.7838    0.0000 </r>
       <r>   31.0053    0.0000 </r>
       <r>   35.7454    0.0000 </r>
       <r>   36.3667    0.0000 </r>
      </set>
      <set comment="kpoint 7">
       <r>  -25.8448    1.0000 </r>
       <r>  -25.8448    1.0000 </r>
       <r>  -25.4648    1.0000 </r>
       <r>  -25.3854    1.0000 </r>
       <r>  -24.9798    1.0000 </r>
       <r>  -24.9798    1.0000 </r>
       <r>    0.1530    1.0000 </r>
       <r>    2.0334    1.0000 </r>
       <r>    2.0334    1.0000 </r>
       <r>    4.3151    0.9966 </r>
       <r>    4.3151    0.9966 </r>
       <r>    5.7615    0.0002 </r>
       <r>    6.7596    0.0000 </r>
       <r>    7.6506    0.0000 </r>
       <r>    7.6506    0.0000 </r>
       <r>    9.0326    0.0000 </r>
       <r>    9.0326    0.0000 </r>
       <r>   15.2539    0.0000 </r>
       <r>   15.2539    0.0000 </r>
       <r>   15.2888    0.0000 </r>
       <r>   21.1673    0.0000 </r>
       <r>   21.5452    0.0000 </r>
       <r>   21.5452    0.0000 </r>
       <r>   24.5949    0.0000 </r>
       <r>   24.5949    0.0000 </r>
       <r>   26.2440    0.0000 </r>
       <r>   27.3177    0.0000 </r>
       <r>   28.1184    0.0000 </r>
       <r>   28.1184    0.0000 </r>
       <r>   31.5373    0.0000 </r>
       <r>   34.8418    0.0000 </r>
       <r>   35.2428    0.0000 </r>
      </set>
      <set comment="kpoint 8">
       <r>  -25.8515    1.0000 </r>
       <r>  -25.8515    1.0000 </r>
       <r>  -25.5084    1.0000 </r>
       <r>  -25.3710    1.0000 </r>
       <r>  -25.0034    1.0000 </r>
       <r>  -25.0034    1.0000 </r>
       <r>    0.5706    1.0000 </r>
       <r>    2.3419    1.0000 </r>
       <r>    2.3419    1.0000 </r>
       <r>    4.0967    0.9996 </r>
       <r>    4.0967    0.9996 </r>
       <r>    4.9807    0.2735 </r>
       <r>    7.3779    0.0000 </r>
       <r>    7.6934    0.0000 </r>
       <r>    7.6934    0.0000 </r>
       <r>    8.8145    0.0000 </r>
       <r>    8.8145    0.0000 </r>
       <r>   15.3018    0.0000 </r>
       <r>   15.4799    0.0000 </r>
       <r>   15.4799    0.0000 </r>
       <r>   21.3996    0.0000 </r>
       <r>   21.3996    0.0000 </r>
       <r>   21.5325    0.0000 </r>
       <r>   24.4995    0.0000 </r>
       <r>   24.4995    0.0000 </r>
       <r>   25.8164    0.0000 </r>
       <r>   26.5847    0.0000 </r>
       <r>   28.6871    0.0000 </r>
       <r>   28.6871    0.0000 </r>
       <r>   32.1882    0.0000 </r>
       <r>   34.2099    0.0000 </r>
       <r>   34.3829    0.0000 </r>
      </set>
      <set comment="kpoint 9">
       <r>  -25.8562    1.0000 </r>
       <r>  -25.8562    1.0000 </r>
       <r>  -25.6263    1.0000 </r>
       <r>  -25.2811    1.0000 </r>
       <r>  -25.0316    1.0000 </r>
       <r>  -25.0316    1.0000 </r>
       <r>    1.0131    1.0000 </r>
       <r>    2.6633    1.0000 </r>
       <r>    2.6633    1.0000 </r>
       <r>    3.8815    1.0000 </r>
       <r>    3.8815    1.0000 </r>
       <r>    4.2905    0.9973 </r>
       <r>    7.7671    0.0000 </r>
       <r>    7.7671    0.0000 </r>
       <r>    8.0764    0.0000 </r>
       <r>    8.6302    0.0000 </r>
       <r>    8.6302    0.0000 </r>
       <r>   15.2678    0.0000 </r>
       <r>   15.6361    0.0000 </r>
       <r>   15.6361    0.0000 </r>
       <r>   21.0761    0.0000 </r>
       <r>   21.0761    0.0000 </r>
       <r>   21.9537    0.0000 </r>
       <r>   24.3080    0.0000 </r>
       <r>   24.5036    0.0000 </r>
       <r>   24.5036    0.0000 </r>
       <r>   26.3778    0.0000 </r>
       <r>   29.5843    0.0000 </r>
       <r>   29.5843    0.0000 </r>
       <r>   33.0403    0.0000 </r>
       <r>   33.2922    0.0000 </r>
       <r>   34.4065    0.0000 </r>
      </set>
      <set comment="kpoint 10">
       <r>  -25.8574    1.0000 </r>
       <r>  -25.8574    1.0000 </r>
       <r>  -25.7327    1.0000 </r>
       <r>  -25.2021    1.0000 </r>
       <r>  -25.0647    1.0000 </r>
       <r>  -25.0647    1.0000 </r>
       <r>    1.4697    1.0000 </r>
       <r>    2.9824    1.0000 </r>
       <r>    2.9824    1.0000 </r>
       <r>    3.6831    1.0000 </r>
       <r>    3.6831    1.0000 </r>
       <r>    3.7011    1.0000 </r>
       <r>    7.8642    0.0000 </r>
       <r>    7.8642    0.0000 </r>
       <r>    8.4812    0.0000 </r>
       <r>    8.4812    0.0000 </r>
       <r>    8.8426    0.0000 </r>
       <r>   15.2019    0.0000 </r>
       <r>   15.7169    0.0000 </r>
       <r>   15.7169    0.0000 </r>
       <r>   20.6514    0.0000 </r>
       <r>   20.6514    0.0000 </r>
       <r>   22.4311    0.0000 </r>
       <r>   22.8183    0.0000 </r>
       <r>   24.6272    0.0000 </r>
       <r>   24.6272    0.0000 </r>
       <r>   25.7041    0.0000 </r>
       <r>   30.7020    0.0000 </r>
       <r>   30.7020    0.0000 </r>
       <r>   32.5035    0.0000 </r>
       <r>   34.0375    0.0000 </r>
       <r>   34.8230    0.0000 </r>
      </set>
      <set comment="kpoint 11">
       <r>  -25.8544    1.0000 </r>
       <r>  -25.8544    1.0000 </r>
       <r>  -25.8222    1.0000 </r>
       <r>  -25.1394    1.0000 </r>
       <r>  -25.1027    1.0000 </r>
       <r>  -25.1027    1.0000 </r>
       <r>    1.9295    1.0000 </r>
       <r>    3.2252    1.0000 </r>
       <r>    3.2806    1.0000 </r>
       <r>    3.2806    1.0000 </r>
       <r>    3.5113    1.0000 </r>
       <r>    3.5113    1.0000 </r>
       <r>    7.9767    0.0000 </r>
       <r>    7.9767    0.0000 </r>
       <r>    8.3787    0.0000 </r>
       <r>    8.3787    0.0000 </r>
       <r>    9.6596    0.0000 </r>
       <r>   15.1160    0.0000 </r>
       <r>   15.7315    0.0000 </r>
       <r>   15.7315    0.0000 </r>
       <r>   20.1851    0.0000 </r>
       <r>   20.1851    0.0000 </r>
       <r>   21.3721    0.0000 </r>
       <r>   22.9652    0.0000 </r>
       <r>   24.7659    0.0000 </r>
       <r>   24.8765    0.0000 </r>
       <r>   24.8765    0.0000 </r>
       <r>   31.8558    0.0000 </r>
       <r>   31.8949    0.0000 </r>
       <r>   31.8949    0.0000 </r>
       <r>   34.8232    0.0000 </r>
       <r>   35.0552    0.0000 </r>
      </set>
      <set comment="kpoint 12">
       <r>  -25.8903    1.0000 </r>
       <r>  -25.8466    1.0000 </r>
       <r>  -25.8466    1.0000 </r>
       <r>  -25.1451    1.0000 </r>
       <r>  -25.1451    1.0000 </r>
       <r>  -25.0983    1.0000 </r>
       <r>    2.3813    1.0000 </r>
       <r>    2.8687    1.0000 </r>
       <r>    3.3745    1.0000 </r>
       <r>    3.3745    1.0000 </r>
       <r>    3.5390    1.0000 </r>
       <r>    3.5390    1.0000 </r>
       <r>    8.0954    0.0000 </r>
       <r>    8.0954    0.0000 </r>
       <r>    8.3253    0.0000 </r>
       <r>    8.3253    0.0000 </r>
       <r>   10.5090    0.0000 </r>
       <r>   15.0155    0.0000 </r>
       <r>   15.7020    0.0000 </r>
       <r>   15.7020    0.0000 </r>
       <r>   19.7119    0.0000 </r>
       <r>   19.7119    0.0000 </r>
       <r>   19.9932    0.0000 </r>
       <r>   23.5546    0.0000 </r>
       <r>   23.7147    0.0000 </r>
       <r>   25.2449    0.0000 </r>
       <r>   25.2449    0.0000 </r>
       <r>   31.3550    0.0000 </r>
       <r>   32.7984    0.0000 </r>
       <r>   32.7984    0.0000 </r>
       <r>   35.1425    0.0000 </r>
       <r>   35.1425    0.0000 </r>
      </set>
      <set comment="kpoint 13">
       <r>  -25.9342    1.0000 </r>
       <r>  -25.8332    1.0000 </r>
       <r>  -25.8332    1.0000 </r>
       <r>  -25.1917    1.0000 </r>
       <r>  -25.1917    1.0000 </r>
       <r>  -25.0816    1.0000 </r>
       <r>    2.6351    1.0000 </r>
       <r>    2.8107    1.0000 </r>
       <r>    3.2774    1.0000 </r>
       <r>    3.2774    1.0000 </r>
       <r>    3.7416    1.0000 </r>
       <r>    3.7416    1.0000 </r>
       <r>    8.2142    0.0000 </r>
       <r>    8.2142    0.0000 </r>
       <r>    8.3224    0.0000 </r>
       <r>    8.3224    0.0000 </r>
       <r>   11.3697    0.0000 </r>
       <r>   14.9063    0.0000 </r>
       <r>   15.6586    0.0000 </r>
       <r>   15.6586    0.0000 </r>
       <r>   18.7070    0.0000 </r>
       <r>   19.2527    0.0000 </r>
       <r>   19.2527    0.0000 </r>
       <r>   22.6363    0.0000 </r>
       <r>   24.1998    0.0000 </r>
       <r>   25.7172    0.0000 </r>
       <r>   25.7172    0.0000 </r>
       <r>   31.0140    0.0000 </r>
       <r>   32.9238    0.0000 </r>
       <r>   32.9238    0.0000 </r>
       <r>   35.6698    0.0000 </r>
       <r>   35.8879    0.0000 </r>
      </set>
      <set comment="kpoint 14">
       <r>  -25.9521    1.0000 </r>
       <r>  -25.8139    1.0000 </r>
       <r>  -25.8139    1.0000 </r>
       <r>  -25.2422    1.0000 </r>
       <r>  -25.2422    1.0000 </r>
       <r>  -25.0915    1.0000 </r>
       <r>    2.5223    1.0000 </r>
       <r>    3.2003    1.0000 </r>
       <r>    3.2217    1.0000 </r>
       <r>    3.2217    1.0000 </r>
       <r>    3.8781    1.0000 </r>
       <r>    3.8781    1.0000 </r>
       <r>    8.3270    0.0000 </r>
       <r>    8.3270    0.0000 </r>
       <r>    8.3617    0.0000 </r>
       <r>    8.3617    0.0000 </r>
       <r>   12.2178    0.0000 </r>
       <r>   14.7882    0.0000 </r>
       <r>   15.6325    0.0000 </r>
       <r>   15.6325    0.0000 </r>
       <r>   17.5413    0.0000 </r>
       <r>   18.8165    0.0000 </r>
       <r>   18.8165    0.0000 </r>
       <r>   21.5781    0.0000 </r>
       <r>   24.9009    0.0000 </r>
       <r>   26.2754    0.0000 </r>
       <r>   26.2754    0.0000 </r>
       <r>   30.8438    0.0000 </r>
       <r>   32.6236    0.0000 </r>
       <r>   32.6236    0.0000 </r>
       <r>   35.1588    0.0000 </r>
       <r>   35.1588    0.0000 </r>
      </set>
      <set comment="kpoint 15">
       <r>  -25.9436    1.0000 </r>
       <r>  -25.7892    1.0000 </r>
       <r>  -25.7892    1.0000 </r>
       <r>  -25.2958    1.0000 </r>
       <r>  -25.2958    1.0000 </r>
       <r>  -25.1276    1.0000 </r>
       <r>    2.5239    1.0000 </r>
       <r>    3.2072    1.0000 </r>
       <r>    3.2072    1.0000 </r>
       <r>    3.5283    1.0000 </r>
       <r>    3.9452    0.9999 </r>
       <r>    3.9452    0.9999 </r>
       <r>    8.4267    0.0000 </r>
       <r>    8.4267    0.0000 </r>
       <r>    8.4289    0.0000 </r>
       <r>    8.4289    0.0000 </r>
       <r>   13.0279    0.0000 </r>
       <r>   14.6598    0.0000 </r>
       <r>   15.6438    0.0000 </r>
       <r>   15.6438    0.0000 </r>
       <r>   16.5293    0.0000 </r>
       <r>   18.4058    0.0000 </r>
       <r>   18.4058    0.0000 </r>
       <r>   20.5688    0.0000 </r>
       <r>   25.6577    0.0000 </r>
       <r>   26.9009    0.0000 </r>
       <r>   26.9009    0.0000 </r>
       <r>   30.8542    0.0000 </r>
       <r>   32.2326    0.0000 </r>
       <r>   32.2326    0.0000 </r>
       <r>   34.4977    0.0000 </r>
       <r>   34.4977    0.0000 </r>
      </set>
      <set comment="kpoint 16">
       <r>  -25.9095    1.0000 </r>
       <r>  -25.7576    1.0000 </r>
       <r>  -25.7576    1.0000 </r>
       <r>  -25.3516    1.0000 </r>
       <r>  -25.3516    1.0000 </r>
       <r>  -25.1880    1.0000 </r>
       <r>    2.6283    1.0000 </r>
       <r>    3.2314    1.0000 </r>
       <r>    3.2314    1.0000 </r>
       <r>    3.7703    1.0000 </r>
       <r>    3.9516    0.9999 </r>
       <r>    3.9516    0.9999 </r>
       <r>    8.5055    0.0000 </r>
       <r>    8.5055    0.0000 </r>
       <r>    8.5163    0.0000 </r>
       <r>    8.5163    0.0000 </r>
       <r>   13.7651    0.0000 </r>
       <r>   14.5235    0.0000 </r>
       <r>   15.7183    0.0000 </r>
       <r>   15.7216    0.0000 </r>
       <r>   15.7216    0.0000 </r>
       <r>   18.0186    0.0000 </r>
       <r>   18.0186    0.0000 </r>
       <r>   19.6284    0.0000 </r>
       <r>   26.4701    0.0000 </r>
       <r>   27.5784    0.0000 </r>
       <r>   27.5784    0.0000 </r>
       <r>   31.0503    0.0000 </r>
       <r>   31.8419    0.0000 </r>
       <r>   31.8419    0.0000 </r>
       <r>   33.9330    0.0000 </r>
       <r>   33.9330    0.0000 </r>
      </set>
      <set comment="kpoint 17">
       <r>  -25.8522    1.0000 </r>
       <r>  -25.7202    1.0000 </r>
       <r>  -25.7202    1.0000 </r>
       <r>  -25.4093    1.0000 </r>
       <r>  -25.4093    1.0000 </r>
       <r>  -25.2688    1.0000 </r>
       <r>    2.8172    1.0000 </r>
       <r>    3.2894    1.0000 </r>
       <r>    3.2894    1.0000 </r>
       <r>    3.9029    0.9999 </r>
       <r>    3.9070    0.9999 </r>
       <r>    3.9070    0.9999 </r>
       <r>    8.5769    0.0000 </r>
       <r>    8.5769    0.0000 </r>
       <r>    8.5824    0.0000 </r>
       <r>    8.5824    0.0000 </r>
       <r>   14.3080    0.0000 </r>
       <r>   14.3810    0.0000 </r>
       <r>   15.2451    0.0000 </r>
       <r>   15.8673    0.0000 </r>
       <r>   15.8673    0.0000 </r>
       <r>   17.6502    0.0000 </r>
       <r>   17.6502    0.0000 </r>
       <r>   18.7661    0.0000 </r>
       <r>   27.3381    0.0000 </r>
       <r>   28.2867    0.0000 </r>
       <r>   28.2867    0.0000 </r>
       <r>   31.4266    0.0000 </r>
       <r>   31.4736    0.0000 </r>
       <r>   31.4736    0.0000 </r>
       <r>   33.4942    0.0000 </r>
       <r>   33.4942    0.0000 </r>
      </set>
      <set comment="kpoint 18">
       <r>  -25.7746    1.0000 </r>
       <r>  -25.6774    1.0000 </r>
       <r>  -25.6774    1.0000 </r>
       <r>  -25.4667    1.0000 </r>
       <r>  -25.4667    1.0000 </r>
       <r>  -25.3648    1.0000 </r>
       <r>    3.0655    1.0000 </r>
       <r>    3.3760    1.0000 </r>
       <r>    3.3760    1.0000 </r>
       <r>    3.8245    1.0000 </r>
       <r>    3.8245    1.0000 </r>
       <r>    3.9130    0.9999 </r>
       <r>    8.6314    0.0000 </r>
       <r>    8.6314    0.0000 </r>
       <r>    8.6339    0.0000 </r>
       <r>    8.6339    0.0000 </r>
       <r>   14.2436    0.0000 </r>
       <r>   14.3112    0.0000 </r>
       <r>   15.4713    0.0000 </r>
       <r>   16.0746    0.0000 </r>
       <r>   16.0746    0.0000 </r>
       <r>   17.2973    0.0000 </r>
       <r>   17.2973    0.0000 </r>
       <r>   17.9862    0.0000 </r>
       <r>   28.2614    0.0000 </r>
       <r>   29.0014    0.0000 </r>
       <r>   29.0014    0.0000 </r>
       <r>   31.1208    0.0000 </r>
       <r>   31.1208    0.0000 </r>
       <r>   31.9675    0.0000 </r>
       <r>   32.5033    0.0000 </r>
       <r>   33.2177    0.0000 </r>
      </set>
      <set comment="kpoint 19">
       <r>  -25.6816    1.0000 </r>
       <r>  -25.6298    1.0000 </r>
       <r>  -25.6298    1.0000 </r>
       <r>  -25.5238    1.0000 </r>
       <r>  -25.5238    1.0000 </r>
       <r>  -25.4710    1.0000 </r>
       <r>    3.3389    1.0000 </r>
       <r>    3.4820    1.0000 </r>
       <r>    3.4820    1.0000 </r>
       <r>    3.7178    1.0000 </r>
       <r>    3.7178    1.0000 </r>
       <r>    3.8039    1.0000 </r>
       <r>    8.6613    0.0000 </r>
       <r>    8.6613    0.0000 </r>
       <r>    8.6617    0.0000 </r>
       <r>    8.6617    0.0000 </r>
       <r>   14.1343    0.0000 </r>
       <r>   14.1460    0.0000 </r>
       <r>   16.0246    0.0000 </r>
       <r>   16.3349    0.0000 </r>
       <r>   16.3349    0.0000 </r>
       <r>   16.9566    0.0000 </r>
       <r>   16.9566    0.0000 </r>
       <r>   17.2806    0.0000 </r>
       <r>   29.2398    0.0000 </r>
       <r>   29.6819    0.0000 </r>
       <r>   29.6819    0.0000 </r>
       <r>   30.7417    0.0000 </r>
       <r>   30.7417    0.0000 </r>
       <r>   31.3609    0.0000 </r>
       <r>   32.6349    0.0000 </r>
       <r>   33.1582    0.0000 </r>
      </set>
      <set comment="kpoint 20">
       <r>  -25.5783    1.0000 </r>
       <r>  -25.5783    1.0000 </r>
       <r>  -25.5783    1.0000 </r>
       <r>  -25.5783    1.0000 </r>
       <r>  -25.5783    1.0000 </r>
       <r>  -25.5783    1.0000 </r>
       <r>    3.5997    1.0000 </r>
       <r>    3.5997    1.0000 </r>
       <r>    3.5997    1.0000 </r>
       <r>    3.5997    1.0000 </r>
       <r>    3.5997    1.0000 </r>
       <r>    3.5997    1.0000 </r>
       <r>    8.6722    0.0000 </r>
       <r>    8.6722    0.0000 </r>
       <r>    8.6722    0.0000 </r>
       <r>    8.6722    0.0000 </r>
       <r>   14.0886    0.0000 </r>
       <r>   14.0886    0.0000 </r>
       <r>   16.6333    0.0000 </r>
       <r>   16.6333    0.0000 </r>
       <r>   16.6333    0.0000 </r>
       <r>   16.6333    0.0000 </r>
       <r>   16.6333    0.0000 </r>
       <r>   16.6333    0.0000 </r>
       <r>   30.2730    0.0000 </r>
       <r>   30.2730    0.0000 </r>
       <r>   30.2730    0.0000 </r>
       <r>   30.2730    0.0000 </r>
       <r>   30.2730    0.0000 </r>
       <r>   30.2730    0.0000 </r>
       <r>   33.3806    0.0000 </r>
       <r>   33.3806    0.0000 </r>
      </set>
      <set comment="kpoint 21">
       <r>  -25.5783    1.0000 </r>
       <r>  -25.5783    1.0000 </r>
       <r>  -25.5783    1.0000 </r>
       <r>  -25.5783    1.0000 </r>
       <r>  -25.5783    1.0000 </r>
       <r>  -25.5783    1.0000 </r>
       <r>    3.5997    1.0000 </r>
       <r>    3.5997    1.0000 </r>
       <r>    3.5997    1.0000 </r>
       <r>    3.5997    1.0000 </r>
       <r>    3.5997    1.0000 </r>
       <r>    3.5997    1.0000 </r>
       <r>    8.6722    0.0000 </r>
       <r>    8.6722    0.0000 </r>
       <r>    8.6722    0.0000 </r>
       <r>    8.6722    0.0000 </r>
       <r>   14.0886    0.0000 </r>
       <r>   14.0886    0.0000 </r>
       <r>   16.6333    0.0000 </r>
       <r>   16.6333    0.0000 </r>
       <r>   16.6333    0.0000 </r>
       <r>   16.6333    0.0000 </r>
       <r>   16.6333    0.0000 </r>
       <r>   16.6333    0.0000 </r>
       <r>   30.2730    0.0000 </r>
       <r>   30.2730    0.0000 </r>
       <r>   30.2730    0.0000 </r>
       <r>   30.2730    0.0000 </r>
       <r>   30.2730    0.0000 </r>
       <r>   30.2730    0.0000 </r>
       <r>   33.3806    0.0000 </r>
       <r>   33.3806    0.0000 </r>
      </set>
      <set comment="kpoint 22">
       <r>  -25.6522    1.0000 </r>
       <r>  -25.6522    1.0000 </r>
       <r>  -25.5768    1.0000 </r>
       <r>  -25.5768    1.0000 </r>
       <r>  -25.5025    1.0000 </r>
       <r>  -25.5025    1.0000 </r>
       <r>    3.4252    1.0000 </r>
       <r>    3.4252    1.0000 </r>
       <r>    3.5932    1.0000 </r>
       <r>    3.5932    1.0000 </r>
       <r>    3.7621    1.0000 </r>
       <r>    3.7621    1.0000 </r>
       <r>    8.6623    0.0000 </r>
       <r>    8.6623    0.0000 </r>
       <r>    8.6679    0.0000 </r>
       <r>    8.6679    0.0000 </r>
       <r>   14.1232    0.0000 </r>
       <r>   14.1232    0.0000 </r>
       <r>   16.1937    0.0000 </r>
       <r>   16.1937    0.0000 </r>
       <r>   16.6563    0.0000 </r>
       <r>   16.6563    0.0000 </r>
       <r>   17.0788    0.0000 </r>
       <r>   17.0788    0.0000 </r>
       <r>   29.5190    0.0000 </r>
       <r>   29.5190    0.0000 </r>
       <r>   30.2314    0.0000 </r>
       <r>   30.2314    0.0000 </r>
       <r>   30.9948    0.0000 </r>
       <r>   30.9948    0.0000 </r>
       <r>   32.9136    0.0000 </r>
       <r>   32.9136    0.0000 </r>
      </set>
      <set comment="kpoint 23">
       <r>  -25.7224    1.0000 </r>
       <r>  -25.7224    1.0000 </r>
       <r>  -25.5724    1.0000 </r>
       <r>  -25.5724    1.0000 </r>
       <r>  -25.4264    1.0000 </r>
       <r>  -25.4264    1.0000 </r>
       <r>    3.2454    1.0000 </r>
       <r>    3.2454    1.0000 </r>
       <r>    3.5744    1.0000 </r>
       <r>    3.5744    1.0000 </r>
       <r>    3.9071    0.9999 </r>
       <r>    3.9071    0.9999 </r>
       <r>    8.6330    0.0000 </r>
       <r>    8.6330    0.0000 </r>
       <r>    8.6569    0.0000 </r>
       <r>    8.6569    0.0000 </r>
       <r>   14.2224    0.0000 </r>
       <r>   14.2224    0.0000 </r>
       <r>   15.7623    0.0000 </r>
       <r>   15.7623    0.0000 </r>
       <r>   16.7257    0.0000 </r>
       <r>   16.7257    0.0000 </r>
       <r>   17.5328    0.0000 </r>
       <r>   17.5328    0.0000 </r>
       <r>   28.7851    0.0000 </r>
       <r>   28.7851    0.0000 </r>
       <r>   30.0921    0.0000 </r>
       <r>   30.0921    0.0000 </r>
       <r>   31.5918    0.0000 </r>
       <r>   31.5918    0.0000 </r>
       <r>   32.6363    0.0000 </r>
       <r>   32.6363    0.0000 </r>
      </set>
      <set comment="kpoint 24">
       <r>  -25.7870    1.0000 </r>
       <r>  -25.7870    1.0000 </r>
       <r>  -25.5648    1.0000 </r>
       <r>  -25.5648    1.0000 </r>
       <r>  -25.3524    1.0000 </r>
       <r>  -25.3524    1.0000 </r>
       <r>    3.0663    1.0000 </r>
       <r>    3.0663    1.0000 </r>
       <r>    3.5457    1.0000 </r>
       <r>    3.5457    1.0000 </r>
       <r>    4.0303    0.9998 </r>
       <r>    4.0303    0.9998 </r>
       <r>    8.5827    0.0000 </r>
       <r>    8.5827    0.0000 </r>
       <r>    8.6404    0.0000 </r>
       <r>    8.6404    0.0000 </r>
       <r>   14.3633    0.0000 </r>
       <r>   14.3633    0.0000 </r>
       <r>   15.3528    0.0000 </r>
       <r>   15.3528    0.0000 </r>
       <r>   16.8431    0.0000 </r>
       <r>   16.8431    0.0000 </r>
       <r>   17.9973    0.0000 </r>
       <r>   17.9973    0.0000 </r>
       <r>   28.0960    0.0000 </r>
       <r>   28.0960    0.0000 </r>
       <r>   29.8475    0.0000 </r>
       <r>   29.8475    0.0000 </r>
       <r>   31.9897    0.0000 </r>
       <r>   31.9897    0.0000 </r>
       <r>   32.5855    0.0000 </r>
       <r>   32.5855    0.0000 </r>
      </set>
      <set comment="kpoint 25">
       <r>  -25.8445    1.0000 </r>
       <r>  -25.8445    1.0000 </r>
       <r>  -25.5549    1.0000 </r>
       <r>  -25.5549    1.0000 </r>
       <r>  -25.2831    1.0000 </r>
       <r>  -25.2831    1.0000 </r>
       <r>    2.8940    1.0000 </r>
       <r>    2.8940    1.0000 </r>
       <r>    3.5087    1.0000 </r>
       <r>    3.5087    1.0000 </r>
       <r>    4.1292    0.9995 </r>
       <r>    4.1292    0.9995 </r>
       <r>    8.5024    0.0000 </r>
       <r>    8.5024    0.0000 </r>
       <r>    8.6227    0.0000 </r>
       <r>    8.6227    0.0000 </r>
       <r>   14.4271    0.0000 </r>
       <r>   14.4271    0.0000 </r>
       <r>   15.0695    0.0000 </r>
       <r>   15.0695    0.0000 </r>
       <r>   17.0082    0.0000 </r>
       <r>   17.0082    0.0000 </r>
       <r>   18.4735    0.0000 </r>
       <r>   18.4735    0.0000 </r>
       <r>   27.4633    0.0000 </r>
       <r>   27.4633    0.0000 </r>
       <r>   29.5365    0.0000 </r>
       <r>   29.5365    0.0000 </r>
       <r>   32.2246    0.0000 </r>
       <r>   32.2246    0.0000 </r>
       <r>   32.7315    0.0000 </r>
       <r>   32.7315    0.0000 </r>
      </set>
      <set comment="kpoint 26">
       <r>  -25.8934    1.0000 </r>
       <r>  -25.8934    1.0000 </r>
       <r>  -25.5424    1.0000 </r>
       <r>  -25.5424    1.0000 </r>
       <r>  -25.2198    1.0000 </r>
       <r>  -25.2198    1.0000 </r>
       <r>    2.7353    1.0000 </r>
       <r>    2.7353    1.0000 </r>
       <r>    3.4679    1.0000 </r>
       <r>    3.4679    1.0000 </r>
       <r>    4.2040    0.9989 </r>
       <r>    4.2040    0.9989 </r>
       <r>    8.3954    0.0000 </r>
       <r>    8.3954    0.0000 </r>
       <r>    8.6120    0.0000 </r>
       <r>    8.6120    0.0000 </r>
       <r>   14.1619    0.0000 </r>
       <r>   14.1619    0.0000 </r>
       <r>   15.1574    0.0000 </r>
       <r>   15.1574    0.0000 </r>
       <r>   17.2233    0.0000 </r>
       <r>   17.2233    0.0000 </r>
       <r>   18.9623    0.0000 </r>
       <r>   18.9623    0.0000 </r>
       <r>   26.8922    0.0000 </r>
       <r>   26.8922    0.0000 </r>
       <r>   29.2206    0.0000 </r>
       <r>   29.2206    0.0000 </r>
       <r>   32.3747    0.0000 </r>
       <r>   32.3747    0.0000 </r>
       <r>   33.0151    0.0000 </r>
       <r>   33.0151    0.0000 </r>
      </set>
      <set comment="kpoint 27">
       <r>  -25.9328    1.0000 </r>
       <r>  -25.9328    1.0000 </r>
       <r>  -25.5281    1.0000 </r>
       <r>  -25.5281    1.0000 </r>
       <r>  -25.1649    1.0000 </r>
       <r>  -25.1649    1.0000 </r>
       <r>    2.5944    1.0000 </r>
       <r>    2.5944    1.0000 </r>
       <r>    3.4264    1.0000 </r>
       <r>    3.4264    1.0000 </r>
       <r>    4.2558    0.9981 </r>
       <r>    4.2558    0.9981 </r>
       <r>    8.2572    0.0000 </r>
       <r>    8.2572    0.0000 </r>
       <r>    8.6048    0.0000 </r>
       <r>    8.6048    0.0000 </r>
       <r>   13.7188    0.0000 </r>
       <r>   13.7188    0.0000 </r>
       <r>   15.4511    0.0000 </r>
       <r>   15.4511    0.0000 </r>
       <r>   17.4880    0.0000 </r>
       <r>   17.4880    0.0000 </r>
       <r>   19.4629    0.0000 </r>
       <r>   19.4629    0.0000 </r>
       <r>   26.3838    0.0000 </r>
       <r>   26.3838    0.0000 </r>
       <r>   28.9463    0.0000 </r>
       <r>   28.9463    0.0000 </r>
       <r>   32.4837    0.0000 </r>
       <r>   32.4837    0.0000 </r>
       <r>   33.3782    0.0000 </r>
       <r>   33.3782    0.0000 </r>
      </set>
      <set comment="kpoint 28">
       <r>  -25.9618    1.0000 </r>
       <r>  -25.9618    1.0000 </r>
       <r>  -25.5122    1.0000 </r>
       <r>  -25.5122    1.0000 </r>
       <r>  -25.1198    1.0000 </r>
       <r>  -25.1198    1.0000 </r>
       <r>    2.4751    1.0000 </r>
       <r>    2.4751    1.0000 </r>
       <r>    3.3883    1.0000 </r>
       <r>    3.3883    1.0000 </r>
       <r>    4.2890    0.9974 </r>
       <r>    4.2890    0.9974 </r>
       <r>    8.0866    0.0000 </r>
       <r>    8.0866    0.0000 </r>
       <r>    8.6067    0.0000 </r>
       <r>    8.6067    0.0000 </r>
       <r>   13.2277    0.0000 </r>
       <r>   13.2277    0.0000 </r>
       <r>   15.8093    0.0000 </r>
       <r>   15.8093    0.0000 </r>
       <r>   17.8019    0.0000 </r>
       <r>   17.8019    0.0000 </r>
       <r>   19.9736    0.0000 </r>
       <r>   19.9736    0.0000 </r>
       <r>   25.9364    0.0000 </r>
       <r>   25.9364    0.0000 </r>
       <r>   28.7393    0.0000 </r>
       <r>   28.7393    0.0000 </r>
       <r>   32.5680    0.0000 </r>
       <r>   32.5680    0.0000 </r>
       <r>   33.7730    0.0000 </r>
       <r>   33.7730    0.0000 </r>
      </set>
      <set comment="kpoint 29">
       <r>  -25.9795    1.0000 </r>
       <r>  -25.9795    1.0000 </r>
       <r>  -25.4948    1.0000 </r>
       <r>  -25.4948    1.0000 </r>
       <r>  -25.0858    1.0000 </r>
       <r>  -25.0858    1.0000 </r>
       <r>    2.3796    1.0000 </r>
       <r>    2.3796    1.0000 </r>
       <r>    3.3576    1.0000 </r>
       <r>    3.3576    1.0000 </r>
       <r>    4.3105    0.9967 </r>
       <r>    4.3105    0.9967 </r>
       <r>    7.8912    0.0000 </r>
       <r>    7.8912    0.0000 </r>
       <r>    8.6195    0.0000 </r>
       <r>    8.6195    0.0000 </r>
       <r>   12.7163    0.0000 </r>
       <r>   12.7163    0.0000 </r>
       <r>   16.1959    0.0000 </r>
       <r>   16.1959    0.0000 </r>
       <r>   18.1637    0.0000 </r>
       <r>   18.1637    0.0000 </r>
       <r>   20.4960    0.0000 </r>
       <r>   20.4960    0.0000 </r>
       <r>   25.5482    0.0000 </r>
       <r>   25.5482    0.0000 </r>
       <r>   28.6104    0.0000 </r>
       <r>   28.6104    0.0000 </r>
       <r>   32.6307    0.0000 </r>
       <r>   32.6307    0.0000 </r>
       <r>   34.1625    0.0000 </r>
       <r>   34.1625    0.0000 </r>
      </set>
      <set comment="kpoint 30">
       <r>  -25.9858    1.0000 </r>
       <r>  -25.9858    1.0000 </r>
       <r>  -25.4768    1.0000 </r>
       <r>  -25.4768    1.0000 </r>
       <r>  -25.0638    1.0000 </r>
       <r>  -25.0638    1.0000 </r>
       <r>    2.3083    1.0000 </r>
       <r>    2.3083    1.0000 </r>
       <r>    3.3366    1.0000 </r>
       <r>    3.3366    1.0000 </r>
       <r>    4.3285    0.9961 </r>
       <r>    4.3285    0.9961 </r>
       <r>    7.6686    0.0000 </r>
       <r>    7.6686    0.0000 </r>
       <r>    8.6378    0.0000 </r>
       <r>    8.6378    0.0000 </r>
       <r>   12.1901    0.0000 </r>
       <r>   12.1901    0.0000 </r>
       <r>   16.5935    0.0000 </r>
       <r>   16.5935    0.0000 </r>
       <r>   18.5682    0.0000 </r>
       <r>   18.5682    0.0000 </r>
       <r>   21.0276    0.0000 </r>
       <r>   21.0276    0.0000 </r>
       <r>   25.2141    0.0000 </r>
       <r>   25.2141    0.0000 </r>
       <r>   28.5521    0.0000 </r>
       <r>   28.5521    0.0000 </r>
       <r>   32.6551    0.0000 </r>
       <r>   32.6551    0.0000 </r>
       <r>   34.5147    0.0000 </r>
       <r>   34.5147    0.0000 </r>
      </set>
      <set comment="kpoint 31">
       <r>  -25.9806    1.0000 </r>
       <r>  -25.9806    1.0000 </r>
       <r>  -25.4586    1.0000 </r>
       <r>  -25.4586    1.0000 </r>
       <r>  -25.0546    1.0000 </r>
       <r>  -25.0546    1.0000 </r>
       <r>    2.2589    1.0000 </r>
       <r>    2.2589    1.0000 </r>
       <r>    3.3282    1.0000 </r>
       <r>    3.3282    1.0000 </r>
       <r>    4.3527    0.9950 </r>
       <r>    4.3527    0.9950 </r>
       <r>    7.4259    0.0000 </r>
       <r>    7.4259    0.0000 </r>
       <r>    8.6573    0.0000 </r>
       <r>    8.6573    0.0000 </r>
       <r>   11.6576    0.0000 </r>
       <r>   11.6576    0.0000 </r>
       <r>   16.9915    0.0000 </r>
       <r>   16.9915    0.0000 </r>
       <r>   19.0117    0.0000 </r>
       <r>   19.0117    0.0000 </r>
       <r>   21.5639    0.0000 </r>
       <r>   21.5639    0.0000 </r>
       <r>   24.9288    0.0000 </r>
       <r>   24.9288    0.0000 </r>
       <r>   28.5437    0.0000 </r>
       <r>   28.5437    0.0000 </r>
       <r>   32.6192    0.0000 </r>
       <r>   32.6192    0.0000 </r>
       <r>   34.7998    0.0000 </r>
       <r>   34.7998    0.0000 </r>
      </set>
      <set comment="kpoint 32">
       <r>  -25.9641    1.0000 </r>
       <r>  -25.9641    1.0000 </r>
       <r>  -25.4405    1.0000 </r>
       <r>  -25.4405    1.0000 </r>
       <r>  -25.0583    1.0000 </r>
       <r>  -25.0583    1.0000 </r>
       <r>    2.2285    1.0000 </r>
       <r>    2.2285    1.0000 </r>
       <r>    3.3344    1.0000 </r>
       <r>    3.3344    1.0000 </r>
       <r>    4.3936    0.9926 </r>
       <r>    4.3936    0.9926 </r>
       <r>    7.1696    0.0000 </r>
       <r>    7.1696    0.0000 </r>
       <r>    8.6714    0.0000 </r>
       <r>    8.6714    0.0000 </r>
       <r>   11.1287    0.0000 </r>
       <r>   11.1287    0.0000 </r>
       <r>   17.3845    0.0000 </r>
       <r>   17.3845    0.0000 </r>
       <r>   19.4885    0.0000 </r>
       <r>   19.4885    0.0000 </r>
       <r>   22.0936    0.0000 </r>
       <r>   22.0936    0.0000 </r>
       <r>   24.6862    0.0000 </r>
       <r>   24.6862    0.0000 </r>
       <r>   28.5549    0.0000 </r>
       <r>   28.5549    0.0000 </r>
       <r>   32.4927    0.0000 </r>
       <r>   32.4927    0.0000 </r>
       <r>   34.9431    0.0000 </r>
       <r>   34.9431    0.0000 </r>
      </set>
      <set comment="kpoint 33">
       <r>  -25.9368    1.0000 </r>
       <r>  -25.9368    1.0000 </r>
       <r>  -25.4232    1.0000 </r>
       <r>  -25.4232    1.0000 </r>
       <r>  -25.0747    1.0000 </r>
       <r>  -25.0747    1.0000 </r>
       <r>    2.2122    1.0000 </r>
       <r>    2.2122    1.0000 </r>
       <r>    3.3554    1.0000 </r>
       <r>    3.3554    1.0000 </r>
       <r>    4.4610    0.9855 </r>
       <r>    4.4610    0.9855 </r>
       <r>    6.9052    0.0000 </r>
       <r>    6.9052    0.0000 </r>
       <r>    8.6660    0.0000 </r>
       <r>    8.6660    0.0000 </r>
       <r>   10.6165    0.0000 </r>
       <r>   10.6165    0.0000 </r>
       <r>   17.7718    0.0000 </r>
       <r>   17.7718    0.0000 </r>
       <r>   19.9902    0.0000 </r>
       <r>   19.9902    0.0000 </r>
       <r>   22.5929    0.0000 </r>
       <r>   22.5929    0.0000 </r>
       <r>   24.4795    0.0000 </r>
       <r>   24.4795    0.0000 </r>
       <r>   28.5611    0.0000 </r>
       <r>   28.5611    0.0000 </r>
       <r>   32.2503    0.0000 </r>
       <r>   32.2503    0.0000 </r>
       <r>   34.7883    0.0000 </r>
       <r>   34.7883    0.0000 </r>
      </set>
      <set comment="kpoint 34">
       <r>  -25.8997    1.0000 </r>
       <r>  -25.8997    1.0000 </r>
       <r>  -25.4070    1.0000 </r>
       <r>  -25.4070    1.0000 </r>
       <r>  -25.1027    1.0000 </r>
       <r>  -25.1027    1.0000 </r>
       <r>    2.2050    1.0000 </r>
       <r>    2.2050    1.0000 </r>
       <r>    3.3914    1.0000 </r>
       <r>    3.3914    1.0000 </r>
       <r>    4.5640    0.9605 </r>
       <r>    4.5640    0.9605 </r>
       <r>    6.6421    0.0000 </r>
       <r>    6.6421    0.0000 </r>
       <r>    8.6232    0.0000 </r>
       <r>    8.6232    0.0000 </r>
       <r>   10.1464    0.0000 </r>
       <r>   10.1464    0.0000 </r>
       <r>   18.1543    0.0000 </r>
       <r>   18.1543    0.0000 </r>
       <r>   20.5088    0.0000 </r>
       <r>   20.5088    0.0000 </r>
       <r>   23.0220    0.0000 </r>
       <r>   23.0220    0.0000 </r>
       <r>   24.3018    0.0000 </r>
       <r>   24.3018    0.0000 </r>
       <r>   28.5659    0.0000 </r>
       <r>   28.5659    0.0000 </r>
       <r>   31.8929    0.0000 </r>
       <r>   31.8929    0.0000 </r>
       <r>   34.6546    0.0000 </r>
       <r>   34.6546    0.0000 </r>
      </set>
      <set comment="kpoint 35">
       <r>  -25.8539    1.0000 </r>
       <r>  -25.8539    1.0000 </r>
       <r>  -25.3924    1.0000 </r>
       <r>  -25.3924    1.0000 </r>
       <r>  -25.1409    1.0000 </r>
       <r>  -25.1409    1.0000 </r>
       <r>    2.2024    1.0000 </r>
       <r>    2.2024    1.0000 </r>
       <r>    3.4410    1.0000 </r>
       <r>    3.4410    1.0000 </r>
       <r>    4.7087    0.8511 </r>
       <r>    4.7087    0.8511 </r>
       <r>    6.3901    0.0000 </r>
       <r>    6.3901    0.0000 </r>
       <r>    8.5039    0.0000 </r>
       <r>    8.5039    0.0000 </r>
       <r>    9.7619    0.0000 </r>
       <r>    9.7619    0.0000 </r>
       <r>   18.5331    0.0000 </r>
       <r>   18.5331    0.0000 </r>
       <r>   21.0333    0.0000 </r>
       <r>   21.0333    0.0000 </r>
       <r>   23.3277    0.0000 </r>
       <r>   23.3277    0.0000 </r>
       <r>   24.1450    0.0000 </r>
       <r>   24.1450    0.0000 </r>
       <r>   28.6150    0.0000 </r>
       <r>   28.6150    0.0000 </r>
       <r>   31.4535    0.0000 </r>
       <r>   31.4535    0.0000 </r>
       <r>   34.7096    0.0000 </r>
       <r>   34.7096    0.0000 </r>
      </set>
      <set comment="kpoint 36">
       <r>  -25.8016    1.0000 </r>
       <r>  -25.8016    1.0000 </r>
       <r>  -25.3800    1.0000 </r>
       <r>  -25.3800    1.0000 </r>
       <r>  -25.1877    1.0000 </r>
       <r>  -25.1877    1.0000 </r>
       <r>    2.2009    1.0000 </r>
       <r>    2.2009    1.0000 </r>
       <r>    3.4999    1.0000 </r>
       <r>    3.4999    1.0000 </r>
       <r>    4.8939    0.4728 </r>
       <r>    4.8939    0.4728 </r>
       <r>    6.1549    0.0000 </r>
       <r>    6.1549    0.0000 </r>
       <r>    8.2675    0.0000 </r>
       <r>    8.2675    0.0000 </r>
       <r>    9.5075    0.0000 </r>
       <r>    9.5075    0.0000 </r>
       <r>   18.9037    0.0000 </r>
       <r>   18.9037    0.0000 </r>
       <r>   21.5499    0.0000 </r>
       <r>   21.5499    0.0000 </r>
       <r>   23.4657    0.0000 </r>
       <r>   23.4657    0.0000 </r>
       <r>   23.9993    0.0000 </r>
       <r>   23.9993    0.0000 </r>
       <r>   28.7694    0.0000 </r>
       <r>   28.7694    0.0000 </r>
       <r>   30.9804    0.0000 </r>
       <r>   30.9804    0.0000 </r>
       <r>   34.9064    0.0000 </r>
       <r>   34.9064    0.0000 </r>
      </set>
      <set comment="kpoint 37">
       <r>  -25.7452    1.0000 </r>
       <r>  -25.7452    1.0000 </r>
       <r>  -25.3699    1.0000 </r>
       <r>  -25.3699    1.0000 </r>
       <r>  -25.2400    1.0000 </r>
       <r>  -25.2400    1.0000 </r>
       <r>    2.1993    1.0000 </r>
       <r>    2.1993    1.0000 </r>
       <r>    3.5626    1.0000 </r>
       <r>    3.5626    1.0000 </r>
       <r>    5.1140    0.0904 </r>
       <r>    5.1140    0.0904 </r>
       <r>    5.9500    0.0000 </r>
       <r>    5.9500    0.0000 </r>
       <r>    7.9372    0.0000 </r>
       <r>    7.9372    0.0000 </r>
       <r>    9.3769    0.0000 </r>
       <r>    9.3769    0.0000 </r>
       <r>   19.2556    0.0000 </r>
       <r>   19.2556    0.0000 </r>
       <r>   22.0424    0.0000 </r>
       <r>   22.0424    0.0000 </r>
       <r>   23.4381    0.0000 </r>
       <r>   23.4381    0.0000 </r>
       <r>   23.8531    0.0000 </r>
       <r>   23.8531    0.0000 </r>
       <r>   29.0486    0.0000 </r>
       <r>   29.0486    0.0000 </r>
       <r>   30.5302    0.0000 </r>
       <r>   30.5302    0.0000 </r>
       <r>   35.1417    0.0000 </r>
       <r>   35.1417    0.0000 </r>
      </set>
      <set comment="kpoint 38">
       <r>  -25.6896    1.0000 </r>
       <r>  -25.6896    1.0000 </r>
       <r>  -25.3625    1.0000 </r>
       <r>  -25.3625    1.0000 </r>
       <r>  -25.2930    1.0000 </r>
       <r>  -25.2930    1.0000 </r>
       <r>    2.1975    1.0000 </r>
       <r>    2.1975    1.0000 </r>
       <r>    3.6203    1.0000 </r>
       <r>    3.6203    1.0000 </r>
       <r>    5.3497    0.0093 </r>
       <r>    5.3497    0.0093 </r>
       <r>    5.7881    0.0001 </r>
       <r>    5.7881    0.0001 </r>
       <r>    7.5862    0.0000 </r>
       <r>    7.5862    0.0000 </r>
       <r>    9.3184    0.0000 </r>
       <r>    9.3184    0.0000 </r>
       <r>   19.5634    0.0000 </r>
       <r>   19.5634    0.0000 </r>
       <r>   22.4917    0.0000 </r>
       <r>   22.4917    0.0000 </r>
       <r>   23.3063    0.0000 </r>
       <r>   23.3063    0.0000 </r>
       <r>   23.6921    0.0000 </r>
       <r>   23.6921    0.0000 </r>
       <r>   29.3968    0.0000 </r>
       <r>   29.3968    0.0000 </r>
       <r>   30.1564    0.0000 </r>
       <r>   30.1564    0.0000 </r>
       <r>   35.2143    0.0000 </r>
       <r>   35.2143    0.0000 </r>
      </set>
      <set comment="kpoint 39">
       <r>  -25.6436    1.0000 </r>
       <r>  -25.6436    1.0000 </r>
       <r>  -25.3580    1.0000 </r>
       <r>  -25.3580    1.0000 </r>
       <r>  -25.3375    1.0000 </r>
       <r>  -25.3375    1.0000 </r>
       <r>    2.1959    1.0000 </r>
       <r>    2.1959    1.0000 </r>
       <r>    3.6619    1.0000 </r>
       <r>    3.6619    1.0000 </r>
       <r>    5.5561    0.0012 </r>
       <r>    5.5561    0.0012 </r>
       <r>    5.6830    0.0003 </r>
       <r>    5.6830    0.0003 </r>
       <r>    7.2993    0.0000 </r>
       <r>    7.2993    0.0000 </r>
       <r>    9.2943    0.0000 </r>
       <r>    9.2943    0.0000 </r>
       <r>   19.7840    0.0000 </r>
       <r>   19.7840    0.0000 </r>
       <r>   22.8750    0.0000 </r>
       <r>   22.8750    0.0000 </r>
       <r>   23.1653    0.0000 </r>
       <r>   23.1653    0.0000 </r>
       <r>   23.5023    0.0000 </r>
       <r>   23.5023    0.0000 </r>
       <r>   29.6977    0.0000 </r>
       <r>   29.6977    0.0000 </r>
       <r>   29.9074    0.0000 </r>
       <r>   29.9074    0.0000 </r>
       <r>   35.0455    0.0000 </r>
       <r>   35.0455    0.0000 </r>
      </set>
      <set comment="kpoint 40">
       <r>  -25.6241    1.0000 </r>
       <r>  -25.6241    1.0000 </r>
       <r>  -25.3562    1.0000 </r>
       <r>  -25.3562    1.0000 </r>
       <r>  -25.3562    1.0000 </r>
       <r>  -25.3562    1.0000 </r>
       <r>    2.1954    1.0000 </r>
       <r>    2.1954    1.0000 </r>
       <r>    3.6776    1.0000 </r>
       <r>    3.6776    1.0000 </r>
       <r>    5.6481    0.0005 </r>
       <r>    5.6481    0.0005 </r>
       <r>    5.6481    0.0005 </r>
       <r>    5.6481    0.0005 </r>
       <r>    7.1849    0.0000 </r>
       <r>    7.1849    0.0000 </r>
       <r>    9.2884    0.0000 </r>
       <r>    9.2884    0.0000 </r>
       <r>   19.8664    0.0000 </r>
       <r>   19.8664    0.0000 </r>
       <r>   23.1054    0.0000 </r>
       <r>   23.1054    0.0000 </r>
       <r>   23.1054    0.0000 </r>
       <r>   23.1054    0.0000 </r>
       <r>   23.3406    0.0000 </r>
       <r>   23.3406    0.0000 </r>
       <r>   29.8204    0.0000 </r>
       <r>   29.8204    0.0000 </r>
       <r>   29.8204    0.0000 </r>
       <r>   29.8204    0.0000 </r>
       <r>   34.9668    0.0000 </r>
       <r>   34.9668    0.0000 </r>
      </set>
      <set comment="kpoint 41">
       <r>  -25.6241    1.0000 </r>
       <r>  -25.6241    1.0000 </r>
       <r>  -25.3562    1.0000 </r>
       <r>  -25.3562    1.0000 </r>
       <r>  -25.3562    1.0000 </r>
       <r>  -25.3562    1.0000 </r>
       <r>    2.1954    1.0000 </r>
       <r>    2.1954    1.0000 </r>
       <r>    3.6776    1.0000 </r>
       <r>    3.6776    1.0000 </r>
       <r>    5.6481    0.0005 </r>
       <r>    5.6481    0.0005 </r>
       <r>    5.6481    0.0005 </r>
       <r>    5.6481    0.0005 </r>
       <r>    7.1849    0.0000 </r>
       <r>    7.1849    0.0000 </r>
       <r>    9.2884    0.0000 </r>
       <r>    9.2884    0.0000 </r>
       <r>   19.8664    0.0000 </r>
       <r>   19.8664    0.0000 </r>
       <r>   23.1054    0.0000 </r>
       <r>   23.1054    0.0000 </r>
       <r>   23.1054    0.0000 </r>
       <r>   23.1054    0.0000 </r>
       <r>   23.3406    0.0000 </r>
       <r>   23.3406    0.0000 </r>
       <r>   29.8204    0.0000 </r>
       <r>   29.8204    0.0000 </r>
       <r>   29.8204    0.0000 </r>
       <r>   29.8204    0.0000 </r>
       <r>   34.9668    0.0000 </r>
       <r>   34.9668    0.0000 </r>
      </set>
      <set comment="kpoint 42">
       <r>  -25.6583    1.0000 </r>
       <r>  -25.5867    1.0000 </r>
       <r>  -25.3935    1.0000 </r>
       <r>  -25.3935    1.0000 </r>
       <r>  -25.3194    1.0000 </r>
       <r>  -25.3194    1.0000 </r>
       <r>    2.0208    1.0000 </r>
       <r>    2.3339    1.0000 </r>
       <r>    3.4236    1.0000 </r>
       <r>    3.9398    0.9999 </r>
[...]
        <r>  0.0001  0.0130  0.0014  0.0130  0.0337  0.1887  0.0013  0.1887  0.0000 </r>
       </set>
       <set comment="band 12">
        <r>  0.0000  0.0136  0.0000  0.0136  0.0000  0.1994  0.0000  0.1994  0.0127 </r>
        <r>  0.0000  0.0136  0.0000  0.0136  0.0000  0.1994  0.0000  0.1994  0.0127 </r>
       </set>
       <set comment="band 13">
        <r>  0.0000  0.0155  0.0010  0.0155  0.0312  0.1860  0.0027  0.1860  0.0000 </r>
        <r>  0.0000  0.0155  0.0010  0.0155  0.0312  0.1860  0.0027  0.1860  0.0000 </r>
       </set>
       <set comment="band 14">
        <r>  0.0000  0.0165  0.0000  0.0165  0.0000  0.1985  0.0000  0.1985  0.0059 </r>
        <r>  0.0000  0.0165  0.0000  0.0165  0.0000  0.1985  0.0000  0.1985  0.0059 </r>
       </set>
       <set comment="band 15">
        <r>  0.0000  0.0013  0.0001  0.0013  0.4313  0.0146  0.0002  0.0146  0.0000 </r>
        <r>  0.0000  0.0013  0.0001  0.0013  0.4313  0.0146  0.0002  0.0146  0.0000 </r>
       </set>
       <set comment="band 16">
        <r>  0.0001  0.0013  0.0000  0.0013  0.4323  0.0134  0.0005  0.0134  0.0000 </r>
        <r>  0.0001  0.0013  0.0000  0.0013  0.4323  0.0134  0.0005  0.0134  0.0000 </r>
       </set>
       <set comment="band 17">
        <r>  0.0595  0.0002  0.0173  0.0002  0.0000  0.0001  0.3901  0.0001  0.0000 </r>
        <r>  0.0595  0.0002  0.0173  0.0002  0.0000  0.0001  0.3901  0.0001  0.0000 </r>
       </set>
       <set comment="band 18">
        <r>  0.0859  0.0003  0.0319  0.0003  0.0001  0.0004  0.3299  0.0004  0.0000 </r>
        <r>  0.0859  0.0003  0.0319  0.0003  0.0001  0.0004  0.3299  0.0004  0.0000 </r>
       </set>
       <set comment="band 19">
        <r>  0.0639  0.0020  0.0695  0.0020  0.0000  0.0045  0.0321  0.0045  0.0000 </r>
        <r>  0.0639  0.0020  0.0695  0.0020  0.0000  0.0045  0.0321  0.0045  0.0000 </r>
       </set>
       <set comment="band 20">
        <r>  0.0618  0.0007  0.0763  0.0007  0.0000  0.0030  0.0129  0.0030  0.0000 </r>
        <r>  0.0618  0.0007  0.0763  0.0007  0.0000  0.0030  0.0129  0.0030  0.0000 </r>
       </set>
       <set comment="band 21">
        <r>  0.0000  0.1049  0.0000  0.1049  0.0000  0.0741  0.0000  0.0741  0.0287 </r>
        <r>  0.0000  0.1049  0.0000  0.1049  0.0000  0.0741  0.0000  0.0741  0.0287 </r>
       </set>
       <set comment="band 22">
        <r>  0.0000  0.1111  0.0011  0.1111  0.0000  0.0771  0.0020  0.0771  0.0000 </r>
        <r>  0.0000  0.1111  0.0011  0.1111  0.0000  0.0771  0.0020  0.0771  0.0000 </r>
       </set>
       <set comment="band 23">
        <r>  0.0000  0.0245  0.0000  0.0245  0.0000  0.0162  0.0000  0.0162  0.1853 </r>
        <r>  0.0000  0.0245  0.0000  0.0245  0.0000  0.0162  0.0000  0.0162  0.1853 </r>
       </set>
       <set comment="band 24">
        <r>  0.0000  0.0889  0.0006  0.0889  0.0000  0.0789  0.0009  0.0789  0.0000 </r>
        <r>  0.0000  0.0889  0.0006  0.0889  0.0000  0.0789  0.0009  0.0789  0.0000 </r>
       </set>
       <set comment="band 25">
        <r>  0.0000  0.0069  0.0000  0.0069  0.0000  0.0087  0.0000  0.0087  0.2120 </r>
        <r>  0.0000  0.0069  0.0000  0.0069  0.0000  0.0087  0.0000  0.0087  0.2120 </r>
       </set>
       <set comment="band 26">
        <r>  0.0000  0.0630  0.0000  0.0630  0.0000  0.0661  0.0000  0.0661  0.0357 </r>
        <r>  0.0000  0.0630  0.0000  0.0630  0.0000  0.0661  0.0000  0.0661  0.0357 </r>
       </set>
       <set comment="band 27">
        <r>  0.0036  0.1057  0.0005  0.1057  0.0028  0.0000  0.0009  0.0000  0.0000 </r>
        <r>  0.0036  0.1057  0.0005  0.1057  0.0028  0.0000  0.0009  0.0000  0.0000 </r>
       </set>
       <set comment="band 28">
        <r>  0.0000  0.1119  0.0000  0.1119  0.0000  0.0002  0.0000  0.0002  0.0033 </r>
        <r>  0.0000  0.1119  0.0000  0.1119  0.0000  0.0002  0.0000  0.0002  0.0033 </r>
       </set>
       <set comment="band 29">
        <r>  0.0033  0.0795  0.0001  0.0795  0.0037  0.0026  0.0012  0.0026  0.0000 </r>
        <r>  0.0033  0.0795  0.0001  0.0795  0.0037  0.0026  0.0012  0.0026  0.0000 </r>
       </set>
       <set comment="band 30">
        <r>  0.0000  0.0853  0.0000  0.0853  0.0000  0.0017  0.0000  0.0017  0.0031 </r>
        <r>  0.0000  0.0853  0.0000  0.0853  0.0000  0.0017  0.0000  0.0017  0.0031 </r>
       </set>
       <set comment="band 31">
        <r>  0.0163  0.0004  0.0479  0.0004  0.1101  0.0002  0.0083  0.0002  0.0000 </r>
        <r>  0.0163  0.0004  0.0479  0.0004  0.1101  0.0002  0.0083  0.0002  0.0000 </r>
       </set>
       <set comment="band 32">
        <r>  0.0424  0.0037  0.1611  0.0037  0.0317  0.0003  0.0332  0.0003  0.0000 </r>
        <r>  0.0424  0.0037  0.1611  0.0037  0.0317  0.0003  0.0332  0.0003  0.0000 </r>
       </set>
      </set>
      <set comment="kpoint 119">
       <set comment="band 1">
        <r>  0.0016  0.0047  0.4807  0.0047  0.0000  0.0000  0.0003  0.0000  0.0000 </r>
        <r>  0.0016  0.0047  0.4807  0.0047  0.0000  0.0000  0.0003  0.0000  0.0000 </r>
       </set>
       <set comment="band 2">
        <r>  0.0016  0.0047  0.4809  0.0047  0.0000  0.0000  0.0003  0.0000  0.0000 </r>
        <r>  0.0016  0.0047  0.4809  0.0047  0.0000  0.0000  0.0003  0.0000  0.0000 </r>
       </set>
       <set comment="band 3">
        <r>  0.0000  0.2479  0.0000  0.2479  0.0000  0.0006  0.0000  0.0006  0.0000 </r>
        <r>  0.0000  0.2479  0.0000  0.2479  0.0000  0.0006  0.0000  0.0006  0.0000 </r>
       </set>
       <set comment="band 4">
        <r>  0.0000  0.2432  0.0094  0.2432  0.0000  0.0006  0.0000  0.0006  0.0000 </r>
        <r>  0.0000  0.2432  0.0094  0.2432  0.0000  0.0006  0.0000  0.0006  0.0000 </r>
       </set>
       <set comment="band 5">
        <r>  0.0000  0.2480  0.0000  0.2480  0.0000  0.0007  0.0000  0.0007  0.0000 </r>
        <r>  0.0000  0.2480  0.0000  0.2480  0.0000  0.0007  0.0000  0.0007  0.0000 </r>
       </set>
       <set comment="band 6">
        <r>  0.0000  0.2433  0.0094  0.2433  0.0000  0.0006  0.0000  0.0006  0.0000 </r>
        <r>  0.0000  0.2433  0.0094  0.2433  0.0000  0.0006  0.0000  0.0006  0.0000 </r>
       </set>
       <set comment="band 7">
        <r>  0.1426  0.0000  0.0892  0.0000  0.0000  0.0005  0.0967  0.0005  0.0000 </r>
        <r>  0.1426  0.0000  0.0892  0.0000  0.0000  0.0005  0.0967  0.0005  0.0000 </r>
       </set>
       <set comment="band 8">
        <r>  0.1224  0.0000  0.0904  0.0000  0.0000  0.0005  0.1204  0.0005  0.0000 </r>
        <r>  0.1224  0.0000  0.0904  0.0000  0.0000  0.0005  0.1204  0.0005  0.0000 </r>
       </set>
       <set comment="band 9">
        <r>  0.0000  0.0002  0.0000  0.0002  0.0000  0.0008  0.0000  0.0008  0.3816 </r>
        <r>  0.0000  0.0002  0.0000  0.0002  0.0000  0.0008  0.0000  0.0008  0.3816 </r>
       </set>
       <set comment="band 10">
        <r>  0.0000  0.0002  0.0000  0.0002  0.0000  0.0012  0.0000  0.0012  0.3808 </r>
        <r>  0.0000  0.0002  0.0000  0.0002  0.0000  0.0012  0.0000  0.0012  0.3808 </r>
       </set>
       <set comment="band 11">
        <r>  0.0000  0.0145  0.0004  0.0145  0.0096  0.1996  0.0004  0.1996  0.0000 </r>
        <r>  0.0000  0.0145  0.0004  0.0145  0.0096  0.1996  0.0004  0.1996  0.0000 </r>
       </set>
       <set comment="band 12">
        <r>  0.0000  0.0148  0.0000  0.0148  0.0000  0.2030  0.0000  0.2030  0.0027 </r>
        <r>  0.0000  0.0148  0.0000  0.0148  0.0000  0.2030  0.0000  0.2030  0.0027 </r>
       </set>
       <set comment="band 13">
        <r>  0.0000  0.0158  0.0003  0.0158  0.0092  0.1982  0.0006  0.1982  0.0000 </r>
        <r>  0.0000  0.0158  0.0003  0.0158  0.0092  0.1982  0.0006  0.1982  0.0000 </r>
       </set>
       <set comment="band 14">
        <r>  0.0000  0.0161  0.0000  0.0161  0.0000  0.2014  0.0000  0.2014  0.0018 </r>
        <r>  0.0000  0.0161  0.0000  0.0161  0.0000  0.2014  0.0000  0.2014  0.0018 </r>
       </set>
       <set comment="band 15">
        <r>  0.0000  0.0004  0.0000  0.0004  0.4552  0.0041  0.0000  0.0041  0.0000 </r>
        <r>  0.0000  0.0004  0.0000  0.0004  0.4552  0.0041  0.0000  0.0041  0.0000 </r>
       </set>
       <set comment="band 16">
        <r>  0.0000  0.0004  0.0000  0.0004  0.4541  0.0039  0.0000  0.0039  0.0000 </r>
        <r>  0.0000  0.0004  0.0000  0.0004  0.4541  0.0039  0.0000  0.0039  0.0000 </r>
       </set>
       <set comment="band 17">
        <r>  0.0664  0.0000  0.0200  0.0000  0.0000  0.0000  0.3772  0.0000  0.0000 </r>
        <r>  0.0664  0.0000  0.0200  0.0000  0.0000  0.0000  0.3772  0.0000  0.0000 </r>
       </set>
       <set comment="band 18">
        <r>  0.0798  0.0001  0.0271  0.0001  0.0000  0.0001  0.3473  0.0001  0.0000 </r>
        <r>  0.0798  0.0001  0.0271  0.0001  0.0000  0.0001  0.3473  0.0001  0.0000 </r>
       </set>
       <set comment="band 19">
        <r>  0.0626  0.0004  0.0723  0.0004  0.0000  0.0010  0.0282  0.0010  0.0000 </r>
        <r>  0.0626  0.0004  0.0723  0.0004  0.0000  0.0010  0.0282  0.0010  0.0000 </r>
       </set>
       <set comment="band 20">
        <r>  0.0617  0.0002  0.0755  0.0002  0.0000  0.0008  0.0180  0.0008  0.0000 </r>
        <r>  0.0617  0.0002  0.0755  0.0002  0.0000  0.0008  0.0180  0.0008  0.0000 </r>
       </set>
       <set comment="band 21">
        <r>  0.0000  0.1022  0.0000  0.1022  0.0000  0.0777  0.0000  0.0777  0.0174 </r>
        <r>  0.0000  0.1022  0.0000  0.1022  0.0000  0.0777  0.0000  0.0777  0.0174 </r>
       </set>
       <set comment="band 22">
        <r>  0.0000  0.1072  0.0002  0.1072  0.0000  0.0818  0.0004  0.0818  0.0000 </r>
        <r>  0.0000  0.1072  0.0002  0.1072  0.0000  0.0818  0.0004  0.0818  0.0000 </r>
       </set>
       <set comment="band 23">
        <r>  0.0000  0.0379  0.0000  0.0379  0.0000  0.0295  0.0000  0.0295  0.1520 </r>
        <r>  0.0000  0.0379  0.0000  0.0379  0.0000  0.0295  0.0000  0.0295  0.1520 </r>
       </set>
       <set comment="band 24">
        <r>  0.0000  0.0952  0.0002  0.0952  0.0000  0.0821  0.0003  0.0821  0.0000 </r>
        <r>  0.0000  0.0952  0.0002  0.0952  0.0000  0.0821  0.0003  0.0821  0.0000 </r>
       </set>
       <set comment="band 25">
        <r>  0.0000  0.0570  0.0000  0.0570  0.0000  0.0536  0.0000  0.0536  0.0769 </r>
        <r>  0.0000  0.0570  0.0000  0.0570  0.0000  0.0536  0.0000  0.0536  0.0769 </r>
       </set>
       <set comment="band 26">
        <r>  0.0000  0.0050  0.0000  0.0050  0.0000  0.0055  0.0000  0.0055  0.2213 </r>
        <r>  0.0000  0.0050  0.0000  0.0050  0.0000  0.0055  0.0000  0.0055  0.2213 </r>
       </set>
       <set comment="band 27">
        <r>  0.0009  0.1026  0.0001  0.1026  0.0008  0.0000  0.0003  0.0000  0.0000 </r>
        <r>  0.0009  0.1026  0.0001  0.1026  0.0008  0.0000  0.0003  0.0000  0.0000 </r>
       </set>
       <set comment="band 28">
        <r>  0.0000  0.1042  0.0000  0.1042  0.0000  0.0000  0.0000  0.0000  0.0008 </r>
        <r>  0.0000  0.1042  0.0000  0.1042  0.0000  0.0000  0.0000  0.0000  0.0008 </r>
       </set>
       <set comment="band 29">
        <r>  0.0009  0.0892  0.0001  0.0892  0.0009  0.0011  0.0003  0.0011  0.0000 </r>
        <r>  0.0009  0.0892  0.0001  0.0892  0.0009  0.0011  0.0003  0.0011  0.0000 </r>
       </set>
       <set comment="band 30">
        <r>  0.0000  0.0908  0.0000  0.0908  0.0000  0.0009  0.0000  0.0009  0.0008 </r>
        <r>  0.0000  0.0908  0.0000  0.0908  0.0000  0.0009  0.0000  0.0009  0.0008 </r>
       </set>
       <set comment="band 31">
        <r>  0.0001  0.0005  0.0002  0.0005  0.1501  0.0002  0.0000  0.0002  0.0000 </r>
        <r>  0.0001  0.0005  0.0002  0.0005  0.1501  0.0002  0.0000  0.0002  0.0000 </r>
       </set>
       <set comment="band 32">
        <r>  0.0574  0.0006  0.2142  0.0006  0.0003  0.0000  0.0411  0.0000  0.0000 </r>
        <r>  0.0574  0.0006  0.2141  0.0006  0.0001  0.0000  0.0411  0.0000  0.0000 </r>
       </set>
      </set>
      <set comment="kpoint 120">
       <set comment="band 1">
        <r>  0.0033  0.0000  0.0000  0.0000  0.0000  0.0000  0.0006  0.0000  0.0000 </r>
        <r>  0.0000  0.0000  0.9804  0.0000  0.0000  0.0000  0.0000  0.0000  0.0000 </r>
       </set>
       <set comment="band 2">
        <r>  0.0000  0.0000  0.9804  0.0000  0.0000  0.0000  0.0000  0.0000  0.0000 </r>
        <r>  0.0033  0.0000  0.0000  0.0000  0.0000  0.0000  0.0006  0.0000  0.0000 </r>
       </set>
       <set comment="band 3">
        <r>  0.0000  0.0000  0.0000  0.0000  0.0000  0.0002  0.0000  0.0024  0.0000 </r>
        <r>  0.0000  0.0859  0.0000  0.9060  0.0000  0.0000  0.0000  0.0000  0.0000 </r>
       </set>
       <set comment="band 4">
        <r>  0.0000  0.0000  0.0000  0.0000  0.0000  0.0024  0.0000  0.0002  0.0000 </r>
        <r>  0.0000  0.9060  0.0000  0.0859  0.0000  0.0000  0.0000  0.0000  0.0000 </r>
       </set>
       <set comment="band 5">
        <r>  0.0000  0.0143  0.0000  0.9776  0.0000  0.0000  0.0000  0.0000  0.0000 </r>
        <r>  0.0000  0.0000  0.0000  0.0000  0.0000  0.0000  0.0000  0.0026  0.0000 </r>
       </set>
       <set comment="band 6">
        <r>  0.0000  0.9776  0.0000  0.0143  0.0000  0.0000  0.0000  0.0000  0.0000 </r>
        <r>  0.0000  0.0000  0.0000  0.0000  0.0000  0.0026  0.0000  0.0000  0.0000 </r>
       </set>
       <set comment="band 7">
        <r>  0.0000  0.0000  0.1808  0.0000  0.0000  0.0000  0.0000  0.0000  0.0000 </r>
        <r>  0.2653  0.0000  0.0000  0.0000  0.0000  0.0000  0.2170  0.0000  0.0000 </r>
       </set>
       <set comment="band 8">
        <r>  0.2653  0.0000  0.0000  0.0000  0.0000  0.0000  0.2170  0.0000  0.0000 </r>
        <r>  0.0000  0.0000  0.1808  0.0000  0.0000  0.0000  0.0000  0.0000  0.0000 </r>
       </set>
       <set comment="band 9">
        <r>  0.0000  0.0000  0.0000  0.0000  0.0000  0.0000  0.0000  0.0000  0.0000 </r>
        <r>  0.0000  0.0000  0.0000  0.0000  0.0000  0.0000  0.0000  0.0000  0.7656 </r>
       </set>
       <set comment="band 10">
        <r>  0.0000  0.0000  0.0000  0.0000  0.0000  0.0000  0.0000  0.0000  0.7656 </r>
        <r>  0.0000  0.0000  0.0000  0.0000  0.0000  0.0000  0.0000  0.0000  0.0000 </r>
       </set>
       <set comment="band 11">
        <r>  0.0000  0.0063  0.0000  0.0560  0.0000  0.0000  0.0000  0.0000  0.0000 </r>
        <r>  0.0000  0.0000  0.0000  0.0000  0.0000  0.0825  0.0000  0.7280  0.0000 </r>
       </set>
       <set comment="band 12">
        <r>  0.0000  0.0560  0.0000  0.0063  0.0000  0.0000  0.0000  0.0000  0.0000 </r>
        <r>  0.0000  0.0000  0.0000  0.0000  0.0000  0.7280  0.0000  0.0825  0.0000 </r>
       </set>
       <set comment="band 13">
        <r>  0.0000  0.0000  0.0000  0.0000  0.0000  0.0020  0.0000  0.8085  0.0000 </r>
        <r>  0.0000  0.0002  0.0000  0.0622  0.0000  0.0000  0.0000  0.0000  0.0000 </r>
       </set>
       <set comment="band 14">
        <r>  0.0000  0.0000  0.0000  0.0000  0.0000  0.8085  0.0000  0.0020  0.0000 </r>
        <r>  0.0000  0.0622  0.0000  0.0002  0.0000  0.0000  0.0000  0.0000  0.0000 </r>
       </set>
       <set comment="band 15">
        <r>  0.0000  0.0000  0.0000  0.0000  0.0000  0.0000  0.0000  0.0000  0.0000 </r>
        <r>  0.0000  0.0000  0.0000  0.0000  0.9234  0.0000  0.0000  0.0000  0.0000 </r>
       </set>
       <set comment="band 16">
        <r>  0.0000  0.0000  0.0000  0.0000  0.9234  0.0000  0.0000  0.0000  0.0000 </r>
        <r>  0.0000  0.0000  0.0000  0.0000  0.0000  0.0000  0.0000  0.0000  0.0000 </r>
       </set>
       <set comment="band 17">
        <r>  0.0000  0.0000  0.0465  0.0000  0.0000  0.0000  0.0000  0.0000  0.0000 </r>
        <r>  0.1464  0.0000  0.0000  0.0000  0.0000  0.0000  0.7254  0.0000  0.0000 </r>
       </set>
       <set comment="band 18">
        <r>  0.1464  0.0000  0.0000  0.0000  0.0000  0.0000  0.7254  0.0000  0.0000 </r>
        <r>  0.0000  0.0000  0.0465  0.0000  0.0000  0.0000  0.0000  0.0000  0.0000 </r>
       </set>
       <set comment="band 19">
        <r>  0.1239  0.0000  0.0000  0.0000  0.0000  0.0000  0.0466  0.0000  0.0000 </r>
        <r>  0.0000  0.0000  0.1484  0.0000  0.0000  0.0000  0.0000  0.0000  0.0000 </r>
       </set>
       <set comment="band 20">
        <r>  0.0000  0.0000  0.1484  0.0000  0.0000  0.0000  0.0000  0.0000  0.0000 </r>
        <r>  0.1239  0.0000  0.0000  0.0000  0.0000  0.0000  0.0466  0.0000  0.0000 </r>
       </set>
       <set comment="band 21">
        <r>  0.0000  0.0012  0.0000  0.4051  0.0000  0.0000  0.0000  0.0000  0.0000 </r>
        <r>  0.0000  0.0000  0.0000  0.0000  0.0000  0.0010  0.0000  0.3325  0.0000 </r>
       </set>
       <set comment="band 22">
        <r>  0.0000  0.4051  0.0000  0.0012  0.0000  0.0000  0.0000  0.0000  0.0000 </r>
        <r>  0.0000  0.0000  0.0000  0.0000  0.0000  0.3325  0.0000  0.0010  0.0000 </r>
       </set>
       <set comment="band 23">
        <r>  0.0000  0.0000  0.0000  0.0000  0.0000  0.0555  0.0000  0.2781  0.0000 </r>
        <r>  0.0000  0.0676  0.0000  0.3387  0.0000  0.0000  0.0000  0.0000  0.0000 </r>
       </set>
       <set comment="band 24">
        <r>  0.0000  0.0000  0.0000  0.0000  0.0000  0.2781  0.0000  0.0555  0.0000 </r>
        <r>  0.0000  0.3387  0.0000  0.0676  0.0000  0.0000  0.0000  0.0000  0.0000 </r>
       </set>
       <set comment="band 25">
        <r>  0.0000  0.0000  0.0000  0.0000  0.0000  0.0000  0.0000  0.0000  0.0000 </r>
        <r>  0.0000  0.0000  0.0000  0.0000  0.0000  0.0000  0.0000  0.0000  0.4699 </r>
       </set>
       <set comment="band 26">
        <r>  0.0000  0.0000  0.0000  0.0000  0.0000  0.0000  0.0000  0.0000  0.4699 </r>
        <r>  0.0000  0.0000  0.0000  0.0000  0.0000  0.0000  0.0000  0.0000  0.0000 </r>
       </set>
       <set comment="band 27">
        <r>  0.0000  0.0000  0.0000  0.0000  0.0000  0.0001  0.0000  0.0011  0.0000 </r>
        <r>  0.0000  0.0425  0.0000  0.3458  0.0000  0.0000  0.0000  0.0000  0.0000 </r>
       </set>
       <set comment="band 28">
        <r>  0.0000  0.0000  0.0000  0.0000  0.0000  0.0011  0.0000  0.0001  0.0000 </r>
        <r>  0.0000  0.3458  0.0000  0.0425  0.0000  0.0000  0.0000  0.0000  0.0000 </r>
       </set>
       <set comment="band 29">
        <r>  0.0000  0.0150  0.0000  0.3733  0.0000  0.0000  0.0000  0.0000  0.0000 </r>
        <r>  0.0000  0.0000  0.0000  0.0000  0.0000  0.0000  0.0000  0.0012  0.0000 </r>
       </set>
       <set comment="band 30">
        <r>  0.0000  0.3733  0.0000  0.0150  0.0000  0.0000  0.0000  0.0000  0.0000 </r>
        <r>  0.0000  0.0000  0.0000  0.0000  0.0000  0.0012  0.0000  0.0000  0.0000 </r>
       </set>
       <set comment="band 31">
        <r>  0.0000  0.0000  0.0000  0.0000  0.0062  0.0000  0.0000  0.0000  0.0000 </r>
        <r>  0.0000  0.0000  0.0000  0.0000  0.3016  0.0000  0.0000  0.0000  0.0000 </r>
       </set>
       <set comment="band 32">
        <r>  0.0000  0.0000  0.0000  0.0000  0.3016  0.0000  0.0000  0.0000  0.0000 </r>
        <r>  0.0000  0.0000  0.0000  0.0000  0.0062  0.0000  0.0000  0.0000  0.0000 </r>
       </set>
      </set>
     </set>
    </set>
   </array>
  </projected>
 </calculation>
 <structure name="finalpos" >
  <crystal>
   <varray name="basis" >
    <v>       3.32239000       0.00000000       0.00000000 </v>
    <v>       0.00000000       3.32239000       0.00000000 </v>
    <v>       0.00000000       0.00000000       3.32239000 </v>
   </varray>
   <i name="volume">     36.67345551 </i>
   <varray name="rec_basis" >
    <v>       0.30098814      -0.00000000      -0.00000000 </v>
    <v>       0.00000000       0.30098814      -0.00000000 </v>
    <v>       0.00000000       0.00000000       0.30098814 </v>
   </varray>
  </crystal>
  <varray name="positions" >
   <v>       0.00000000       0.00000000       0.00000000 </v>
   <v>       0.50000000       0.50000000       0.50000000 </v>
  </varray>
 </structure>
</modeling>
