<?xml version="1.0" encoding="ISO-8859-1"?>
<modeling>
 <generator>
  <i name="program" type="string">vasp</i>
  <i name="version" type="string">4.6.35 </i>
  <i name="subversion" type="string">3Apr08 complex  parallel</i>
  <i name="platform" type="string">LinuxIFC</i>
  <i name="date" type="string">2012 09 04</i>
  <i name="time" type="string">16:45:33</i>
 </generator>
 <incar>
  <i type="string" name="SYSTEM">ClNa_svZn.T0002.AB2C</i>
  <i type="string" name="PREC">high</i>
  <i type="string" name="ALGO">Normal</i>
  <i type="int" name="ISPIN">     2</i>
  <i type="int" name="ICHARG">    11</i>
  <i type="int" name="NELM">   120</i>
  <i type="int" name="NELMIN">     2</i>
  <i name="EDIFF">      0.00000100</i>
  <i type="int" name="IBRION">     2</i>
  <i type="int" name="NSW">     0</i>
  <i type="int" name="ISIF">     2</i>
  <i type="int" name="ISYM">     2</i>
  <i name="ENMAX">    980.00000000</i>
  <i type="int" name="NBANDS">    67</i>
  <v name="MAGMOM">      5.00000000      5.00000000      5.00000000      5.00000000</v>
  <i type="logical" name="LREAL"> F  </i>
  <i type="logical" name="LPLANE"> T  </i>
  <i type="int" name="ISMEAR">     0</i>
  <i name="SIGMA">      0.05000000</i>
  <i name="PSTRESS">      0.00000000</i>
  <i type="int" name="NSIM">     4</i>
  <i type="logical" name="LWAVE"> F  </i>
  <i type="logical" name="LCHARG"> F  </i>
  <i type="logical" name="LSCALU"> F  </i>
 </incar>
 <kpoints>
  <generation param="listgenerated">
   <i name="divisions" type="int">      20</i>
   <v>       0.00000000       0.00000000       0.00000000 </v>
   <v>       0.50000000       0.00000000       0.50000000 </v>
   <v>       0.50000000       0.25000000       0.75000000 </v>
   <v>       0.37500000       0.37500000       0.75000000 </v>
   <v>       0.00000000       0.00000000       0.00000000 </v>
   <v>       0.50000000       0.50000000       0.50000000 </v>
   <v>       0.62500000       0.25000000       0.62500000 </v>
   <v>       0.50000000       0.25000000       0.75000000 </v>
   <v>       0.50000000       0.50000000       0.50000000 </v>
   <v>       0.62500000       0.25000000       0.62500000 </v>
   <v>       0.50000000       0.00000000       0.50000000 </v>
  </generation>
  <varray name="kpointlist" >
   <v>       0.00000000       0.00000000       0.00000000 </v>
   <v>       0.02631579       0.00000000       0.02631579 </v>
   <v>       0.05263158       0.00000000       0.05263158 </v>
   <v>       0.07894737       0.00000000       0.07894737 </v>
   <v>       0.10526316       0.00000000       0.10526316 </v>
   <v>       0.13157895       0.00000000       0.13157895 </v>
   <v>       0.15789474       0.00000000       0.15789474 </v>
   <v>       0.18421053       0.00000000       0.18421053 </v>
   <v>       0.21052632       0.00000000       0.21052632 </v>
   <v>       0.23684211       0.00000000       0.23684211 </v>
   <v>       0.26315789       0.00000000       0.26315789 </v>
   <v>       0.28947368       0.00000000       0.28947368 </v>
   <v>       0.31578947       0.00000000       0.31578947 </v>
   <v>       0.34210526       0.00000000       0.34210526 </v>
   <v>       0.36842105       0.00000000       0.36842105 </v>
   <v>       0.39473684       0.00000000       0.39473684 </v>
   <v>       0.42105263       0.00000000       0.42105263 </v>
   <v>       0.44736842       0.00000000       0.44736842 </v>
   <v>       0.47368421       0.00000000       0.47368421 </v>
   <v>       0.50000000       0.00000000       0.50000000 </v>
   <v>       0.50000000       0.00000000       0.50000000 </v>
   <v>       0.50000000       0.01315789       0.51315789 </v>
   <v>       0.50000000       0.02631579       0.52631579 </v>
   <v>       0.50000000       0.03947368       0.53947368 </v>
   <v>       0.50000000       0.05263158       0.55263158 </v>
   <v>       0.50000000       0.06578947       0.56578947 </v>
   <v>       0.50000000       0.07894737       0.57894737 </v>
   <v>       0.50000000       0.09210526       0.59210526 </v>
   <v>       0.50000000       0.10526316       0.60526316 </v>
   <v>       0.50000000       0.11842105       0.61842105 </v>
   <v>       0.50000000       0.13157895       0.63157895 </v>
   <v>       0.50000000       0.14473684       0.64473684 </v>
   <v>       0.50000000       0.15789474       0.65789474 </v>
   <v>       0.50000000       0.17105263       0.67105263 </v>
   <v>       0.50000000       0.18421053       0.68421053 </v>
   <v>       0.50000000       0.19736842       0.69736842 </v>
   <v>       0.50000000       0.21052632       0.71052632 </v>
   <v>       0.50000000       0.22368421       0.72368421 </v>
   <v>       0.50000000       0.23684211       0.73684211 </v>
   <v>       0.50000000       0.25000000       0.75000000 </v>
   <v>       0.50000000       0.25000000       0.75000000 </v>
   <v>       0.49342105       0.25657895       0.75000000 </v>
   <v>       0.48684211       0.26315789       0.75000000 </v>
   <v>       0.48026316       0.26973684       0.75000000 </v>
   <v>       0.47368421       0.27631579       0.75000000 </v>
   <v>       0.46710526       0.28289474       0.75000000 </v>
   <v>       0.46052632       0.28947368       0.75000000 </v>
   <v>       0.45394737       0.29605263       0.75000000 </v>
   <v>       0.44736842       0.30263158       0.75000000 </v>
   <v>       0.44078947       0.30921053       0.75000000 </v>
   <v>       0.43421053       0.31578947       0.75000000 </v>
   <v>       0.42763158       0.32236842       0.75000000 </v>
   <v>       0.42105263       0.32894737       0.75000000 </v>
   <v>       0.41447368       0.33552632       0.75000000 </v>
   <v>       0.40789474       0.34210526       0.75000000 </v>
   <v>       0.40131579       0.34868421       0.75000000 </v>
   <v>       0.39473684       0.35526316       0.75000000 </v>
   <v>       0.38815789       0.36184211       0.75000000 </v>
   <v>       0.38157895       0.36842105       0.75000000 </v>
   <v>       0.37500000       0.37500000       0.75000000 </v>
   <v>       0.37500000       0.37500000       0.75000000 </v>
   <v>       0.35526316       0.35526316       0.71052632 </v>
   <v>       0.33552632       0.33552632       0.67105263 </v>
   <v>       0.31578947       0.31578947       0.63157895 </v>
   <v>       0.29605263       0.29605263       0.59210526 </v>
   <v>       0.27631579       0.27631579       0.55263158 </v>
   <v>       0.25657895       0.25657895       0.51315789 </v>
   <v>       0.23684211       0.23684211       0.47368421 </v>
   <v>       0.21710526       0.21710526       0.43421053 </v>
   <v>       0.19736842       0.19736842       0.39473684 </v>
   <v>       0.17763158       0.17763158       0.35526316 </v>
   <v>       0.15789474       0.15789474       0.31578947 </v>
   <v>       0.13815789       0.13815789       0.27631579 </v>
   <v>       0.11842105       0.11842105       0.23684211 </v>
   <v>       0.09868421       0.09868421       0.19736842 </v>
   <v>       0.07894737       0.07894737       0.15789474 </v>
   <v>       0.05921053       0.05921053       0.11842105 </v>
   <v>       0.03947368       0.03947368       0.07894737 </v>
   <v>       0.01973684       0.01973684       0.03947368 </v>
   <v>       0.00000000       0.00000000       0.00000000 </v>
   <v>       0.00000000       0.00000000       0.00000000 </v>
   <v>       0.02631579       0.02631579       0.02631579 </v>
   <v>       0.05263158       0.05263158       0.05263158 </v>
   <v>       0.07894737       0.07894737       0.07894737 </v>
   <v>       0.10526316       0.10526316       0.10526316 </v>
   <v>       0.13157895       0.13157895       0.13157895 </v>
   <v>       0.15789474       0.15789474       0.15789474 </v>
   <v>       0.18421053       0.18421053       0.18421053 </v>
   <v>       0.21052632       0.21052632       0.21052632 </v>
   <v>       0.23684211       0.23684211       0.23684211 </v>
   <v>       0.26315789       0.26315789       0.26315789 </v>
   <v>       0.28947368       0.28947368       0.28947368 </v>
   <v>       0.31578947       0.31578947       0.31578947 </v>
   <v>       0.34210526       0.34210526       0.34210526 </v>
   <v>       0.36842105       0.36842105       0.36842105 </v>
   <v>       0.39473684       0.39473684       0.39473684 </v>
   <v>       0.42105263       0.42105263       0.42105263 </v>
   <v>       0.44736842       0.44736842       0.44736842 </v>
   <v>       0.47368421       0.47368421       0.47368421 </v>
   <v>       0.50000000       0.50000000       0.50000000 </v>
   <v>       0.50000000       0.50000000       0.50000000 </v>
   <v>       0.50657895       0.48684211       0.50657895 </v>
   <v>       0.51315789       0.47368421       0.51315789 </v>
   <v>       0.51973684       0.46052632       0.51973684 </v>
   <v>       0.52631579       0.44736842       0.52631579 </v>
   <v>       0.53289474       0.43421053       0.53289474 </v>
   <v>       0.53947368       0.42105263       0.53947368 </v>
   <v>       0.54605263       0.40789474       0.54605263 </v>
   <v>       0.55263158       0.39473684       0.55263158 </v>
   <v>       0.55921053       0.38157895       0.55921053 </v>
   <v>       0.56578947       0.36842105       0.56578947 </v>
   <v>       0.57236842       0.35526316       0.57236842 </v>
   <v>       0.57894737       0.34210526       0.57894737 </v>
   <v>       0.58552632       0.32894737       0.58552632 </v>
   <v>       0.59210526       0.31578947       0.59210526 </v>
   <v>       0.59868421       0.30263158       0.59868421 </v>
   <v>       0.60526316       0.28947368       0.60526316 </v>
   <v>       0.61184211       0.27631579       0.61184211 </v>
   <v>       0.61842105       0.26315789       0.61842105 </v>
   <v>       0.62500000       0.25000000       0.62500000 </v>
   <v>       0.62500000       0.25000000       0.62500000 </v>
   <v>       0.61842105       0.25000000       0.63157895 </v>
   <v>       0.61184211       0.25000000       0.63815789 </v>
   <v>       0.60526316       0.25000000       0.64473684 </v>
   <v>       0.59868421       0.25000000       0.65131579 </v>
   <v>       0.59210526       0.25000000       0.65789474 </v>
   <v>       0.58552632       0.25000000       0.66447368 </v>
   <v>       0.57894737       0.25000000       0.67105263 </v>
   <v>       0.57236842       0.25000000       0.67763158 </v>
   <v>       0.56578947       0.25000000       0.68421053 </v>
   <v>       0.55921053       0.25000000       0.69078947 </v>
   <v>       0.55263158       0.25000000       0.69736842 </v>
   <v>       0.54605263       0.25000000       0.70394737 </v>
   <v>       0.53947368       0.25000000       0.71052632 </v>
   <v>       0.53289474       0.25000000       0.71710526 </v>
   <v>       0.52631579       0.25000000       0.72368421 </v>
   <v>       0.51973684       0.25000000       0.73026316 </v>
   <v>       0.51315789       0.25000000       0.73684211 </v>
   <v>       0.50657895       0.25000000       0.74342105 </v>
   <v>       0.50000000       0.25000000       0.75000000 </v>
   <v>       0.50000000       0.25000000       0.75000000 </v>
   <v>       0.50000000       0.26315789       0.73684211 </v>
   <v>       0.50000000       0.27631579       0.72368421 </v>
   <v>       0.50000000       0.28947368       0.71052632 </v>
   <v>       0.50000000       0.30263158       0.69736842 </v>
   <v>       0.50000000       0.31578947       0.68421053 </v>
   <v>       0.50000000       0.32894737       0.67105263 </v>
   <v>       0.50000000       0.34210526       0.65789474 </v>
   <v>       0.50000000       0.35526316       0.64473684 </v>
   <v>       0.50000000       0.36842105       0.63157895 </v>
   <v>       0.50000000       0.38157895       0.61842105 </v>
   <v>       0.50000000       0.39473684       0.60526316 </v>
   <v>       0.50000000       0.40789474       0.59210526 </v>
   <v>       0.50000000       0.42105263       0.57894737 </v>
   <v>       0.50000000       0.43421053       0.56578947 </v>
   <v>       0.50000000       0.44736842       0.55263158 </v>
   <v>       0.50000000       0.46052632       0.53947368 </v>
   <v>       0.50000000       0.47368421       0.52631579 </v>
   <v>       0.50000000       0.48684211       0.51315789 </v>
   <v>       0.50000000       0.50000000       0.50000000 </v>
   <v>       0.50000000       0.50000000       0.50000000 </v>
   <v>       0.49342105       0.49342105       0.51315789 </v>
   <v>       0.48684211       0.48684211       0.52631579 </v>
   <v>       0.48026316       0.48026316       0.53947368 </v>
   <v>       0.47368421       0.47368421       0.55263158 </v>
   <v>       0.46710526       0.46710526       0.56578947 </v>
   <v>       0.46052632       0.46052632       0.57894737 </v>
   <v>       0.45394737       0.45394737       0.59210526 </v>
   <v>       0.44736842       0.44736842       0.60526316 </v>
   <v>       0.44078947       0.44078947       0.61842105 </v>
   <v>       0.43421053       0.43421053       0.63157895 </v>
   <v>       0.42763158       0.42763158       0.64473684 </v>
   <v>       0.42105263       0.42105263       0.65789474 </v>
   <v>       0.41447368       0.41447368       0.67105263 </v>
   <v>       0.40789474       0.40789474       0.68421053 </v>
   <v>       0.40131579       0.40131579       0.69736842 </v>
   <v>       0.39473684       0.39473684       0.71052632 </v>
   <v>       0.38815789       0.38815789       0.72368421 </v>
   <v>       0.38157895       0.38157895       0.73684211 </v>
   <v>       0.37500000       0.37500000       0.75000000 </v>
   <v>       0.62500000       0.25000000       0.62500000 </v>
   <v>       0.61842105       0.23684211       0.61842105 </v>
   <v>       0.61184211       0.22368421       0.61184211 </v>
   <v>       0.60526316       0.21052632       0.60526316 </v>
   <v>       0.59868421       0.19736842       0.59868421 </v>
   <v>       0.59210526       0.18421053       0.59210526 </v>
   <v>       0.58552632       0.17105263       0.58552632 </v>
   <v>       0.57894737       0.15789474       0.57894737 </v>
   <v>       0.57236842       0.14473684       0.57236842 </v>
   <v>       0.56578947       0.13157895       0.56578947 </v>
   <v>       0.55921053       0.11842105       0.55921053 </v>
   <v>       0.55263158       0.10526316       0.55263158 </v>
   <v>       0.54605263       0.09210526       0.54605263 </v>
   <v>       0.53947368       0.07894737       0.53947368 </v>
   <v>       0.53289474       0.06578947       0.53289474 </v>
   <v>       0.52631579       0.05263158       0.52631579 </v>
   <v>       0.51973684       0.03947368       0.51973684 </v>
   <v>       0.51315789       0.02631579       0.51315789 </v>
   <v>       0.50657895       0.01315789       0.50657895 </v>
   <v>       0.50000000       0.00000000       0.50000000 </v>
  </varray>
  <varray name="weights" >
   <v>       0.00500000 </v>
   <v>       0.00500000 </v>
   <v>       0.00500000 </v>
   <v>       0.00500000 </v>
   <v>       0.00500000 </v>
   <v>       0.00500000 </v>
   <v>       0.00500000 </v>
   <v>       0.00500000 </v>
   <v>       0.00500000 </v>
   <v>       0.00500000 </v>
   <v>       0.00500000 </v>
   <v>       0.00500000 </v>
   <v>       0.00500000 </v>
   <v>       0.00500000 </v>
   <v>       0.00500000 </v>
   <v>       0.00500000 </v>
   <v>       0.00500000 </v>
   <v>       0.00500000 </v>
   <v>       0.00500000 </v>
   <v>       0.00500000 </v>
   <v>       0.00500000 </v>
   <v>       0.00500000 </v>
   <v>       0.00500000 </v>
   <v>       0.00500000 </v>
   <v>       0.00500000 </v>
   <v>       0.00500000 </v>
   <v>       0.00500000 </v>
   <v>       0.00500000 </v>
   <v>       0.00500000 </v>
   <v>       0.00500000 </v>
   <v>       0.00500000 </v>
   <v>       0.00500000 </v>
   <v>       0.00500000 </v>
   <v>       0.00500000 </v>
   <v>       0.00500000 </v>
   <v>       0.00500000 </v>
   <v>       0.00500000 </v>
   <v>       0.00500000 </v>
   <v>       0.00500000 </v>
   <v>       0.00500000 </v>
   <v>       0.00500000 </v>
   <v>       0.00500000 </v>
   <v>       0.00500000 </v>
   <v>       0.00500000 </v>
   <v>       0.00500000 </v>
   <v>       0.00500000 </v>
   <v>       0.00500000 </v>
   <v>       0.00500000 </v>
   <v>       0.00500000 </v>
   <v>       0.00500000 </v>
   <v>       0.00500000 </v>
   <v>       0.00500000 </v>
   <v>       0.00500000 </v>
   <v>       0.00500000 </v>
   <v>       0.00500000 </v>
   <v>       0.00500000 </v>
   <v>       0.00500000 </v>
   <v>       0.00500000 </v>
   <v>       0.00500000 </v>
   <v>       0.00500000 </v>
   <v>       0.00500000 </v>
   <v>       0.00500000 </v>
   <v>       0.00500000 </v>
   <v>       0.00500000 </v>
   <v>       0.00500000 </v>
   <v>       0.00500000 </v>
   <v>       0.00500000 </v>
   <v>       0.00500000 </v>
   <v>       0.00500000 </v>
   <v>       0.00500000 </v>
   <v>       0.00500000 </v>
   <v>       0.00500000 </v>
   <v>       0.00500000 </v>
   <v>       0.00500000 </v>
   <v>       0.00500000 </v>
   <v>       0.00500000 </v>
   <v>       0.00500000 </v>
   <v>       0.00500000 </v>
   <v>       0.00500000 </v>
   <v>       0.00500000 </v>
   <v>       0.00500000 </v>
   <v>       0.00500000 </v>
   <v>       0.00500000 </v>
   <v>       0.00500000 </v>
   <v>       0.00500000 </v>
   <v>       0.00500000 </v>
   <v>       0.00500000 </v>
   <v>       0.00500000 </v>
   <v>       0.00500000 </v>
   <v>       0.00500000 </v>
   <v>       0.00500000 </v>
   <v>       0.00500000 </v>
   <v>       0.00500000 </v>
   <v>       0.00500000 </v>
   <v>       0.00500000 </v>
   <v>       0.00500000 </v>
   <v>       0.00500000 </v>
   <v>       0.00500000 </v>
   <v>       0.00500000 </v>
   <v>       0.00500000 </v>
   <v>       0.00500000 </v>
   <v>       0.00500000 </v>
   <v>       0.00500000 </v>
   <v>       0.00500000 </v>
   <v>       0.00500000 </v>
   <v>       0.00500000 </v>
   <v>       0.00500000 </v>
   <v>       0.00500000 </v>
   <v>       0.00500000 </v>
   <v>       0.00500000 </v>
   <v>       0.00500000 </v>
   <v>       0.00500000 </v>
   <v>       0.00500000 </v>
   <v>       0.00500000 </v>
   <v>       0.00500000 </v>
   <v>       0.00500000 </v>
   <v>       0.00500000 </v>
   <v>       0.00500000 </v>
   <v>       0.00500000 </v>
   <v>       0.00500000 </v>
   <v>       0.00500000 </v>
   <v>       0.00500000 </v>
   <v>       0.00500000 </v>
   <v>       0.00500000 </v>
   <v>       0.00500000 </v>
   <v>       0.00500000 </v>
   <v>       0.00500000 </v>
   <v>       0.00500000 </v>
   <v>       0.00500000 </v>
   <v>       0.00500000 </v>
   <v>       0.00500000 </v>
   <v>       0.00500000 </v>
   <v>       0.00500000 </v>
   <v>       0.00500000 </v>
   <v>       0.00500000 </v>
   <v>       0.00500000 </v>
   <v>       0.00500000 </v>
   <v>       0.00500000 </v>
   <v>       0.00500000 </v>
   <v>       0.00500000 </v>
   <v>       0.00500000 </v>
   <v>       0.00500000 </v>
   <v>       0.00500000 </v>
   <v>       0.00500000 </v>
   <v>       0.00500000 </v>
   <v>       0.00500000 </v>
   <v>       0.00500000 </v>
   <v>       0.00500000 </v>
   <v>       0.00500000 </v>
   <v>       0.00500000 </v>
   <v>       0.00500000 </v>
   <v>       0.00500000 </v>
   <v>       0.00500000 </v>
   <v>       0.00500000 </v>
   <v>       0.00500000 </v>
   <v>       0.00500000 </v>
   <v>       0.00500000 </v>
   <v>       0.00500000 </v>
   <v>       0.00500000 </v>
   <v>       0.00500000 </v>
   <v>       0.00500000 </v>
   <v>       0.00500000 </v>
   <v>       0.00500000 </v>
   <v>       0.00500000 </v>
   <v>       0.00500000 </v>
   <v>       0.00500000 </v>
   <v>       0.00500000 </v>
   <v>       0.00500000 </v>
   <v>       0.00500000 </v>
   <v>       0.00500000 </v>
   <v>       0.00500000 </v>
   <v>       0.00500000 </v>
   <v>       0.00500000 </v>
   <v>       0.00500000 </v>
   <v>       0.00500000 </v>
   <v>       0.00500000 </v>
   <v>       0.00500000 </v>
   <v>       0.00500000 </v>
   <v>       0.00500000 </v>
   <v>       0.00500000 </v>
   <v>       0.00500000 </v>
   <v>       0.00500000 </v>
   <v>       0.00500000 </v>
   <v>       0.00500000 </v>
   <v>       0.00500000 </v>
   <v>       0.00500000 </v>
   <v>       0.00500000 </v>
   <v>       0.00500000 </v>
   <v>       0.00500000 </v>
   <v>       0.00500000 </v>
   <v>       0.00500000 </v>
   <v>       0.00500000 </v>
   <v>       0.00500000 </v>
   <v>       0.00500000 </v>
   <v>       0.00500000 </v>
   <v>       0.00500000 </v>
   <v>       0.00500000 </v>
   <v>       0.00500000 </v>
   <v>       0.00500000 </v>
   <v>       0.00500000 </v>
  </varray>
 </kpoints>
 <parameters>
  <separator name="general" >
   <i type="string" name="SYSTEM">ClNa_svZn.T0002.AB2C</i>
   <i type="logical" name="LCOMPAT"> F  </i>
  </separator>
  <separator name="electronic" >
   <i type="string" name="PREC">high</i>
   <i name="ENMAX">    980.00000000</i>
   <i name="ENAUG">   1000.00000000</i>
   <i name="EDIFF">      0.00000100</i>
   <i type="int" name="IALGO">    38</i>
   <i type="int" name="IWAVPR">    10</i>
   <i type="int" name="NBANDS">    67</i>
   <i name="NELECT">     37.00000000</i>
   <separator name="electronic smearing" >
    <i type="int" name="ISMEAR">     0</i>
    <i name="SIGMA">      0.05000000</i>
   </separator>
   <separator name="electronic projectors" >
    <i type="logical" name="LREAL"> F  </i>
    <v name="ROPT">      0.00000000      0.00000000      0.00000000</v>
    <i type="int" name="LMAXPAW">  -100</i>
    <i type="int" name="LMAXMIX">     2</i>
   </separator>
   <separator name="electronic startup" >
    <i type="int" name="ISTART">     0</i>
    <i type="int" name="ICHARG">    11</i>
    <i type="int" name="INIWAV">     1</i>
   </separator>
   <separator name="electronic spin" >
    <i type="int" name="ISPIN">     2</i>
    <i type="logical" name="LNONCOLLINEAR"> F  </i>
    <v name="MAGMOM">      5.00000000      5.00000000      5.00000000      5.00000000</v>
    <i name="NUPDOWN">     -1.00000000</i>
    <i type="logical" name="LSORBIT"> F  </i>
    <v name="SAXIS">      0.00000000      0.00000000      1.00000000</v>
    <i type="logical" name="LSPIRAL"> F  </i>
    <v name="QSPIRAL">      0.00000000      0.00000000      0.00000000</v>
    <i type="logical" name="LZEROZ"> F  </i>
   </separator>
   <separator name="electronic exchange-correlation" >
    <i type="string" name="GGA">--</i>
    <i type="int" name="VOSKOWN">     0</i>
    <i type="logical" name="LASPH"> F  </i>
    <i type="logical" name="LMETAGGA"> F  </i>
    <i type="string" name="GGA2">--</i>
   </separator>
   <separator name="electronic convergence" >
    <i type="int" name="NELM">   120</i>
    <i type="int" name="NELMDL">     0</i>
    <i type="int" name="NELMIN">     2</i>
    <i name="ENINI">    980.00000000</i>
    <separator name="electronic convergence detail" >
     <i type="logical" name="LDIAG"> T  </i>
     <i name="WEIMIN">      0.00000000</i>
     <i name="EBREAK">      0.00000000</i>
     <i name="DEPER">      0.30000000</i>
     <i type="int" name="NRMM">     4</i>
     <i name="TIME">      0.10000000</i>
    </separator>
   </separator>
   <separator name="electronic mixer" >
    <i name="AMIX">      0.40000000</i>
    <i name="BMIX">      1.00000000</i>
    <i name="AMIN">      0.10000000</i>
    <i name="AMIX_MAG">      1.60000000</i>
    <i name="BMIX_MAG">      1.00000000</i>
    <separator name="electronic mixer details" >
     <i type="int" name="IMIX">     4</i>
     <i type="int" name="MAXMIX">   -45</i>
     <i name="WC">    100.00000000</i>
     <i type="int" name="INIMIX">     1</i>
     <i type="int" name="MIXPRE">     1</i>
     <i type="int" name="MREMOVE">     5</i>
    </separator>
   </separator>
   <separator name="electronic dipolcorrection" >
    <i type="int" name="IDIPOL">     0</i>
    <i type="logical" name="LDIPOL"> F  </i>
    <v name="DIPOL">   -100.00000000</v>
    <i name="EFIELD">      0.00000000</i>
   </separator>
  </separator>
  <separator name="grids" >
   <i type="int" name="NGX">    54</i>
   <i type="int" name="NGY">    54</i>
   <i type="int" name="NGZ">    54</i>
   <i type="int" name="NGXF">    80</i>
   <i type="int" name="NGYF">    80</i>
   <i type="int" name="NGZF">    80</i>
   <i type="logical" name="ADDGRID"> F  </i>
  </separator>
  <separator name="ionic" >
   <i type="int" name="NSW">     0</i>
   <i type="int" name="IBRION">    -1</i>
   <i type="int" name="ISIF">     2</i>
   <i name="PSTRESS">      0.00000000</i>
   <i name="EDIFFG">      0.00001000</i>
   <i type="int" name="NFREE">     1</i>
   <i name="POTIM">      0.50000000</i>
   <i name="SMASS">     -3.00000000</i>
  </separator>
  <separator name="ionic md" >
   <i name="TEBEG">      0.00010000</i>
   <i name="TEEND">      0.00010000</i>
   <i type="int" name="NBLOCK">     1</i>
   <i type="int" name="KBLOCK">     1</i>
   <i type="int" name="NPACO">   256</i>
   <i name="APACO">     16.00000000</i>
  </separator>
  <separator name="symmetry" >
   <i type="int" name="ISYM">     2</i>
   <i name="SYMPREC">      0.00001000</i>
  </separator>
  <separator name="dos" >
   <i type="logical" name="LORBIT"> F  </i>
   <v name="RWIGS">     -1.00000000     -1.00000000     -1.00000000</v>
   <i type="int" name="NEDOS">   301</i>
   <i name="EMIN">     10.00000000</i>
   <i name="EMAX">    -10.00000000</i>
  </separator>
  <separator name="writing" >
   <i type="int" name="NWRITE">     2</i>
   <i type="logical" name="LWAVE"> F  </i>
   <i type="logical" name="LCHARG"> F  </i>
   <i type="logical" name="LPARD"> F  </i>
   <i type="logical" name="LVTOT"> F  </i>
   <i type="logical" name="LELF"> F  </i>
   <i type="logical" name="LOPTICS"> F  </i>
   <v name="STM">      0.00000000      0.00000000      0.00000000      0.00000000      0.00000000</v>
  </separator>
  <separator name="performance" >
   <i type="int" name="NPAR">     4</i>
   <i type="int" name="NSIM">     4</i>
   <i type="int" name="NBLK">   256</i>
   <i type="logical" name="LPLANE"> T  </i>
   <i type="logical" name="LCRITICAL_MEM"> F  </i>
   <i type="logical" name="LSCALAPACK"> F  </i>
   <i type="logical" name="LSCALU"> F  </i>
   <i type="logical" name="LASYNC"> F  </i>
  </separator>
  <separator name="miscellaneous" >
   <i type="int" name="IDIOT">     3</i>
   <i type="logical" name="LMUSIC"> F  </i>
   <v name="POMASS">     35.45300000     22.99000000     65.39000000</v>
   <i type="logical" name="LCORR"> T  </i>
  </separator>
  <i type="logical" name="LREAL_COMPAT"> F  </i>
  <i type="logical" name="GGA_COMPAT"> T  </i>
  <i type="logical" name="LBERRY"> F  </i>
  <i type="int" name="ICORELEVEL">     0</i>
  <i type="logical" name="LDAU"> F  </i>
  <i type="int" name="I_CONSTRAINED_M">     0</i>
 </parameters>
 <atominfo>
  <atoms>       4</atoms>
  <types>       3</types>
  <array name="atoms" >
   <dimension dim="1">ion</dimension>
   <field type="string">element</field>
   <field type="int">atomtype</field>
   <set>
    <rc><c>Cl</c><c>   1</c></rc>
    <rc><c>Na</c><c>   2</c></rc>
    <rc><c>Na</c><c>   2</c></rc>
    <rc><c>Zn</c><c>   3</c></rc>
   </set>
  </array>
  <array name="atomtypes" >
   <dimension dim="1">type</dimension>
   <field type="int">atomspertype</field>
   <field type="string">element</field>
   <field>mass</field>
   <field>valence</field>
   <field type="string">pseudopotential</field>
   <set>
    <rc><c>   1</c><c>Cl</c><c>     35.45300000</c><c>      7.00000000</c><c>  PAW_PBE Cl 17Jan2003                  </c></rc>
    <rc><c>   2</c><c>Na</c><c>     22.99000000</c><c>      9.00000000</c><c> PAW_PBE Na_sv 28Sep2000                </c></rc>
    <rc><c>   1</c><c>Zn</c><c>     65.39000000</c><c>     12.00000000</c><c> PAW_PBE Zn 06Sep2000                   </c></rc>
   </set>
  </array>
 </atominfo>
 <structure name="initialpos" >
  <crystal>
   <varray name="basis" >
    <v>       0.00000000       3.76922363       3.76922363 </v>
    <v>       3.76922363       0.00000000       3.76922363 </v>
    <v>       3.76922363       3.76922363       0.00000000 </v>
   </varray>
   <i name="volume">    107.09907318</i>
   <varray name="rec_basis" >
    <v>      -0.13265331       0.13265331       0.13265331 </v>
    <v>       0.13265331      -0.13265331       0.13265331 </v>
    <v>       0.13265331       0.13265331      -0.13265331 </v>
   </varray>
  </crystal>
  <varray name="positions" >
   <v>       0.50000000       0.50000000       0.50000000 </v>
   <v>       0.00000000       0.00000000       0.00000000 </v>
   <v>       0.75000000       0.75000000       0.75000000 </v>
   <v>       0.25000000       0.25000000       0.25000000 </v>
  </varray>
 </structure>
 <calculation>
  <scstep>
   <time name="dav">  170.13  170.19</time>
   <time name="total">  170.29  170.35</time>
   <energy>
    <i name="alphaZ">     82.81679443</i>
    <i name="ewald">  -2425.17885703</i>
    <i name="hartreedc">  -1782.70642345</i>
    <i name="XCdc">    189.79553197</i>
    <i name="pawpsdc">   3254.50378172</i>
    <i name="pawaedc">  -3519.35168580</i>
    <i name="eentropy">     -0.00230121</i>
    <i name="bandstr">     -1.59446527</i>
    <i name="atom">   4774.48883698</i>
    <i name="e_fr_energy">    572.77121233</i>
    <i name="e_wo_entrp">    572.77351353</i>
    <i name="e_0_energy">    572.77236293</i>
   </energy>
  </scstep>
  <scstep>
   <time name="dav">  169.56  169.85</time>
   <time name="total">  169.60  169.89</time>
   <energy>
    <i name="e_fr_energy">     57.89679250</i>
    <i name="e_wo_entrp">     57.89910255</i>
    <i name="e_0_energy">     57.89794753</i>
   </energy>
  </scstep>
  <scstep>
   <time name="dav">  199.32  200.13</time>
   <time name="total">  199.36  200.17</time>
   <energy>
    <i name="e_fr_energy">     -4.61207386</i>
    <i name="e_wo_entrp">     -4.61006686</i>
    <i name="e_0_energy">     -4.61107036</i>
   </energy>
  </scstep>
  <scstep>
   <time name="dav">  213.35  213.45</time>
   <time name="total">  213.39  213.50</time>
   <energy>
    <i name="e_fr_energy">     -6.95939486</i>
    <i name="e_wo_entrp">     -6.95842565</i>
    <i name="e_0_energy">     -6.95891026</i>
   </energy>
  </scstep>
  <scstep>
   <time name="dav">  205.75  205.85</time>
   <time name="total">  205.79  205.90</time>
   <energy>
    <i name="e_fr_energy">     -7.01813910</i>
    <i name="e_wo_entrp">     -7.01717844</i>
    <i name="e_0_energy">     -7.01765877</i>
   </energy>
  </scstep>
  <scstep>
   <time name="dav">  212.40  212.51</time>
   <time name="total">  212.43  212.55</time>
   <energy>
    <i name="e_fr_energy">     -7.01934785</i>
    <i name="e_wo_entrp">     -7.01838730</i>
    <i name="e_0_energy">     -7.01886758</i>
   </energy>
  </scstep>
  <scstep>
   <time name="dav">  205.17  205.55</time>
   <time name="total">  205.20  205.59</time>
   <energy>
    <i name="e_fr_energy">     -7.01935780</i>
    <i name="e_wo_entrp">     -7.01839725</i>
    <i name="e_0_energy">     -7.01887753</i>
   </energy>
  </scstep>
  <scstep>
   <time name="dav">  186.88  186.94</time>
   <time name="total">  186.91  187.00</time>
   <energy>
    <i name="alphaZ">     82.81679443</i>
    <i name="ewald">  -2425.17885703</i>
    <i name="hartreedc">  -1782.70642345</i>
    <i name="XCdc">    189.79553197</i>
    <i name="pawpsdc">   3254.50378172</i>
    <i name="pawaedc">  -3519.35168580</i>
    <i name="eentropy">     -0.00096054</i>
    <i name="bandstr">   -581.38637619</i>
    <i name="atom">   4774.48883698</i>
    <i name="e_fr_energy">     -7.01935792</i>
    <i name="e_wo_entrp">     -7.01839738</i>
    <i name="e_0_energy">     -7.01887765</i>
   </energy>
  </scstep>
  <structure>
   <crystal>
    <varray name="basis" >
     <v>       0.00000000       3.76922363       3.76922363 </v>
     <v>       3.76922363       0.00000000       3.76922363 </v>
     <v>       3.76922363       3.76922363       0.00000000 </v>
    </varray>
    <i name="volume">    107.09907318</i>
    <varray name="rec_basis" >
     <v>      -0.13265331       0.13265331       0.13265331 </v>
     <v>       0.13265331      -0.13265331       0.13265331 </v>
     <v>       0.13265331       0.13265331      -0.13265331 </v>
    </varray>
   </crystal>
   <varray name="positions" >
    <v>       0.50000000       0.50000000       0.50000000 </v>
    <v>       0.00000000       0.00000000       0.00000000 </v>
    <v>       0.75000000       0.75000000       0.75000000 </v>
    <v>       0.25000000       0.25000000       0.25000000 </v>
   </varray>
  </structure>
  <varray name="forces" >
   <v>       0.00000000       0.00000000       0.00000000 </v>
   <v>       0.00000000       0.00000000       0.00000000 </v>
   <v>       0.00000000       0.00000000       0.00000000 </v>
   <v>       0.00000000       0.00000000       0.00000000 </v>
  </varray>
  <varray name="stress" >
   <v>      -2.42360518       0.00000000       0.00000000 </v>
   <v>       0.00000000      -2.42360518       0.00000000 </v>
   <v>       0.00000000       0.00000000      -2.42360518 </v>
  </varray>
  <energy>
   <i name="e_fr_energy">     -7.01935792</i>
   <i name="e_wo_entrp">     -7.01887765</i>
   <i name="e_0_energy">     -0.00096054</i>
  </energy>
  <eigenvalues>
   <array>
    <dimension dim="1">band</dimension>
    <dimension dim="2">kpoint</dimension>
    <dimension dim="3">spin</dimension>
    <field>eigene</field>
    <field>occ</field>
    <set>
     <set comment="spin 1">
      <set comment="kpoint 1">
       <r> -51.7950  1.0000</r>
       <r> -51.4284  1.0000</r>
       <r> -23.7092  1.0000</r>
       <r> -23.7092  1.0000</r>
       <r> -23.7092  1.0000</r>
       <r> -23.3522  1.0000</r>
       <r> -23.3522  1.0000</r>
       <r> -23.3522  1.0000</r>
       <r> -13.8413  1.0000</r>
       <r>  -5.1101  1.0000</r>
       <r>  -5.1101  1.0000</r>
       <r>  -5.1101  1.0000</r>
       <r>  -5.0774  1.0000</r>
       <r>  -5.0774  1.0000</r>
       <r>  -2.3242  1.0000</r>
       <r>  -2.1195  1.0000</r>
       <r>  -2.1195  1.0000</r>
       <r>  -2.1195  1.0000</r>
       <r>   3.8459  0.0000</r>
       <r>   3.8459  0.0000</r>
       <r>   3.8459  0.0000</r>
       <r>   4.2577  0.0000</r>
       <r>   6.5296  0.0000</r>
       <r>   6.5296  0.0000</r>
       <r>   6.5297  0.0000</r>
       <r>   7.2627  0.0000</r>
       <r>   7.2627  0.0000</r>
       <r>  10.1601  0.0000</r>
       <r>  10.9588  0.0000</r>
       <r>  10.9588  0.0000</r>
       <r>  10.9588  0.0000</r>
       <r>  14.7992  0.0000</r>
       <r>  14.7992  0.0000</r>
       <r>  14.7992  0.0000</r>
       <r>  16.4376  0.0000</r>
       <r>  16.4376  0.0000</r>
       <r>  17.2686  0.0000</r>
       <r>  18.1322  0.0000</r>
       <r>  18.1323  0.0000</r>
       <r>  18.1323  0.0000</r>
       <r>  19.8480  0.0000</r>
       <r>  19.8481  0.0000</r>
       <r>  19.8481  0.0000</r>
       <r>  20.1082  0.0000</r>
       <r>  20.1082  0.0000</r>
       <r>  21.6822  0.0000</r>
       <r>  21.6822  0.0000</r>
       <r>  21.6822  0.0000</r>
       <r>  24.0370  0.0000</r>
       <r>  24.0370  0.0000</r>
       <r>  24.6192  0.0000</r>
       <r>  24.6192  0.0000</r>
       <r>  24.6192  0.0000</r>
       <r>  25.4318  0.0000</r>
       <r>  25.4319  0.0000</r>
       <r>  25.4319  0.0000</r>
       <r>  25.7527  0.0000</r>
       <r>  25.7527  0.0000</r>
       <r>  25.7527  0.0000</r>
       <r>  25.9722  0.0000</r>
       <r>  25.9723  0.0000</r>
       <r>  25.9723  0.0000</r>
       <r>  26.1336  0.0000</r>
       <r>  26.1337  0.0000</r>
       <r>  26.1337  0.0000</r>
       <r>  26.8665  0.0000</r>
       <r>  27.4348  0.0000</r>
       <r>  28.6316  0.0000</r>
      </set>
      <set comment="kpoint 2">
       <r> -51.7950  1.0000</r>
       <r> -51.4284  1.0000</r>
       <r> -23.7094  1.0000</r>
       <r> -23.7093  1.0000</r>
       <r> -23.7093  1.0000</r>
       <r> -23.3524  1.0000</r>
       <r> -23.3523  1.0000</r>
       <r> -23.3523  1.0000</r>
       <r> -13.8410  1.0000</r>
       <r>  -5.1100  1.0000</r>
       <r>  -5.1099  1.0000</r>
       <r>  -5.1099  1.0000</r>
       <r>  -5.0775  1.0000</r>
       <r>  -5.0774  1.0000</r>
       <r>  -2.3806  1.0000</r>
       <r>  -2.1217  1.0000</r>
       <r>  -2.1217  1.0000</r>
       <r>  -2.0564  1.0000</r>
       <r>   3.7167  0.0000</r>
       <r>   3.8454  0.0000</r>
       <r>   3.8454  0.0000</r>
       <r>   4.3974  0.0000</r>
       <r>   6.4117  0.0000</r>
       <r>   6.5468  0.0000</r>
       <r>   6.5468  0.0000</r>
       <r>   7.2695  0.0000</r>
       <r>   7.3704  0.0000</r>
       <r>  10.1913  0.0000</r>
       <r>  10.9332  0.0000</r>
       <r>  10.9457  0.0000</r>
       <r>  10.9458  0.0000</r>
       <r>  14.7868  0.0000</r>
       <r>  14.7869  0.0000</r>
       <r>  14.8036  0.0000</r>
       <r>  16.3184  0.0000</r>
       <r>  16.4556  0.0000</r>
       <r>  17.2981  0.0000</r>
       <r>  18.1690  0.0000</r>
       <r>  18.1691  0.0000</r>
       <r>  18.2277  0.0000</r>
       <r>  19.6843  0.0000</r>
       <r>  19.7910  0.0000</r>
       <r>  19.7911  0.0000</r>
       <r>  20.1404  0.0000</r>
       <r>  20.1939  0.0000</r>
       <r>  21.6847  0.0000</r>
       <r>  21.7233  0.0000</r>
       <r>  21.7233  0.0000</r>
       <r>  23.8322  0.0000</r>
       <r>  24.0112  0.0000</r>
       <r>  24.5065  0.0000</r>
       <r>  24.5065  0.0000</r>
       <r>  24.6200  0.0000</r>
       <r>  25.2939  0.0000</r>
       <r>  25.2939  0.0000</r>
       <r>  25.5186  0.0000</r>
       <r>  25.5186  0.0000</r>
       <r>  25.5402  0.0000</r>
       <r>  25.7546  0.0000</r>
       <r>  25.9903  0.0000</r>
       <r>  25.9910  0.0000</r>
       <r>  25.9910  0.0000</r>
       <r>  26.1737  0.0000</r>
       <r>  26.6228  0.0000</r>
       <r>  26.6228  0.0000</r>
       <r>  27.0124  0.0000</r>
       <r>  27.4690  0.0000</r>
       <r>  28.6525  0.0000</r>
      </set>
      <set comment="kpoint 3">
       <r> -51.7951  1.0000</r>
       <r> -51.4284  1.0000</r>
       <r> -23.7095  1.0000</r>
       <r> -23.7094  1.0000</r>
       <r> -23.7094  1.0000</r>
       <r> -23.3525  1.0000</r>
       <r> -23.3523  1.0000</r>
       <r> -23.3523  1.0000</r>
       <r> -13.8402  1.0000</r>
       <r>  -5.1098  1.0000</r>
       <r>  -5.1093  1.0000</r>
       <r>  -5.1093  1.0000</r>
       <r>  -5.0776  1.0000</r>
       <r>  -5.0773  1.0000</r>
       <r>  -2.4793  1.0000</r>
       <r>  -2.1283  1.0000</r>
       <r>  -2.1283  1.0000</r>
       <r>  -1.9374  1.0000</r>
       <r>   3.4936  0.0000</r>
       <r>   3.8442  0.0000</r>
       <r>   3.8442  0.0000</r>
       <r>   4.6520  0.0000</r>
       <r>   6.1642  0.0000</r>
       <r>   6.5979  0.0000</r>
       <r>   6.5980  0.0000</r>
       <r>   7.2899  0.0000</r>
       <r>   7.5863  0.0000</r>
       <r>  10.2836  0.0000</r>
       <r>  10.8622  0.0000</r>
       <r>  10.9070  0.0000</r>
       <r>  10.9070  0.0000</r>
       <r>  14.7525  0.0000</r>
       <r>  14.7525  0.0000</r>
       <r>  14.8168  0.0000</r>
       <r>  16.0258  0.0000</r>
       <r>  16.5029  0.0000</r>
       <r>  17.3902  0.0000</r>
       <r>  18.2735  0.0000</r>
       <r>  18.2736  0.0000</r>
       <r>  18.4404  0.0000</r>
       <r>  19.3753  0.0000</r>
       <r>  19.6387  0.0000</r>
       <r>  19.6388  0.0000</r>
       <r>  20.2458  0.0000</r>
       <r>  20.2791  0.0000</r>
       <r>  21.6778  0.0000</r>
       <r>  21.8212  0.0000</r>
       <r>  21.8213  0.0000</r>
       <r>  23.4209  0.0000</r>
       <r>  23.9394  0.0000</r>
       <r>  24.2010  0.0000</r>
       <r>  24.2010  0.0000</r>
       <r>  24.5468  0.0000</r>
       <r>  25.0120  0.0000</r>
       <r>  25.0120  0.0000</r>
       <r>  25.3140  0.0000</r>
       <r>  25.3140  0.0000</r>
       <r>  25.5096  0.0000</r>
       <r>  26.0440  0.0000</r>
       <r>  26.0888  0.0000</r>
       <r>  26.1979  0.0000</r>
       <r>  26.1979  0.0000</r>
       <r>  26.2886  0.0000</r>
       <r>  27.2919  0.0000</r>
       <r>  27.2919  0.0000</r>
       <r>  27.3405  0.0000</r>
       <r>  27.5775  0.0000</r>
       <r>  28.5689  0.0000</r>
      </set>
      <set comment="kpoint 4">
       <r> -51.7951  1.0000</r>
       <r> -51.4284  1.0000</r>
       <r> -23.7095  1.0000</r>
       <r> -23.7094  1.0000</r>
       <r> -23.7094  1.0000</r>
       <r> -23.3525  1.0000</r>
       <r> -23.3523  1.0000</r>
       <r> -23.3523  1.0000</r>
       <r> -13.8388  1.0000</r>
       <r>  -5.1094  1.0000</r>
       <r>  -5.1084  1.0000</r>
       <r>  -5.1084  1.0000</r>
       <r>  -5.0779  1.0000</r>
       <r>  -5.0771  1.0000</r>
       <r>  -2.5804  1.0000</r>
       <r>  -2.1390  1.0000</r>
       <r>  -2.1390  1.0000</r>
       <r>  -1.8030  1.0000</r>
       <r>   3.2623  0.0000</r>
       <r>   3.8429  0.0000</r>
       <r>   3.8429  0.0000</r>
       <r>   4.9345  0.0000</r>
       <r>   5.8822  0.0000</r>
       <r>   6.6819  0.0000</r>
       <r>   6.6819  0.0000</r>
       <r>   7.3238  0.0000</r>
       <r>   7.8124  0.0000</r>
       <r>  10.4255  0.0000</r>
       <r>  10.7696  0.0000</r>
       <r>  10.8438  0.0000</r>
       <r>  10.8438  0.0000</r>
       <r>  14.7029  0.0000</r>
       <r>  14.7029  0.0000</r>
       <r>  14.8388  0.0000</r>
       <r>  15.6515  0.0000</r>
       <r>  16.5644  0.0000</r>
       <r>  17.5509  0.0000</r>
       <r>  18.4242  0.0000</r>
       <r>  18.4242  0.0000</r>
       <r>  18.6581  0.0000</r>
       <r>  19.0039  0.0000</r>
       <r>  19.4348  0.0000</r>
       <r>  19.4349  0.0000</r>
       <r>  20.3043  0.0000</r>
       <r>  20.4451  0.0000</r>
       <r>  21.6233  0.0000</r>
       <r>  21.9108  0.0000</r>
       <r>  21.9108  0.0000</r>
       <r>  22.9924  0.0000</r>
       <r>  23.8347  0.0000</r>
       <r>  23.8380  0.0000</r>
       <r>  23.8380  0.0000</r>
       <r>  24.3435  0.0000</r>
       <r>  24.7764  0.0000</r>
       <r>  24.7764  0.0000</r>
       <r>  25.1344  0.0000</r>
       <r>  25.1345  0.0000</r>
       <r>  25.5466  0.0000</r>
       <r>  26.1322  0.0000</r>
       <r>  26.4555  0.0000</r>
       <r>  26.4555  0.0000</r>
       <r>  26.4655  0.0000</r>
       <r>  26.5208  0.0000</r>
       <r>  27.6872  0.0000</r>
       <r>  27.7935  0.0000</r>
       <r>  28.0039  0.0000</r>
       <r>  28.0049  0.0000</r>
       <r>  28.5040  0.0000</r>
      </set>
      <set comment="kpoint 5">
       <r> -51.7951  1.0000</r>
       <r> -51.4284  1.0000</r>
       <r> -23.7095  1.0000</r>
       <r> -23.7095  1.0000</r>
       <r> -23.7094  1.0000</r>
       <r> -23.3526  1.0000</r>
       <r> -23.3523  1.0000</r>
       <r> -23.3523  1.0000</r>
       <r> -13.8370  1.0000</r>
       <r>  -5.1089  1.0000</r>
       <r>  -5.1072  1.0000</r>
       <r>  -5.1072  1.0000</r>
       <r>  -5.0783  1.0000</r>
       <r>  -5.0768  1.0000</r>
       <r>  -2.6767  1.0000</r>
       <r>  -2.1534  1.0000</r>
       <r>  -2.1534  1.0000</r>
       <r>  -1.6609  1.0000</r>
       <r>   3.0366  0.0000</r>
       <r>   3.8424  0.0000</r>
       <r>   3.8424  0.0000</r>
       <r>   5.2239  0.0000</r>
       <r>   5.6023  0.0000</r>
       <r>   6.7968  0.0000</r>
       <r>   6.7968  0.0000</r>
       <r>   7.3713  0.0000</r>
       <r>   8.0133  0.0000</r>
       <r>  10.5085  0.0000</r>
       <r>  10.7586  0.0000</r>
       <r>  10.7586  0.0000</r>
       <r>  10.7804  0.0000</r>
       <r>  14.6460  0.0000</r>
       <r>  14.6460  0.0000</r>
       <r>  14.8696  0.0000</r>
       <r>  15.2443  0.0000</r>
       <r>  16.6264  0.0000</r>
       <r>  17.7815  0.0000</r>
       <r>  18.5558  0.0000</r>
       <r>  18.5559  0.0000</r>
       <r>  18.5934  0.0000</r>
       <r>  18.8192  0.0000</r>
       <r>  19.2574  0.0000</r>
       <r>  19.2574  0.0000</r>
       <r>  20.2677  0.0000</r>
       <r>  20.7520  0.0000</r>
       <r>  21.4741  0.0000</r>
       <r>  21.8976  0.0000</r>
       <r>  21.8976  0.0000</r>
       <r>  22.6365  0.0000</r>
       <r>  23.5814  0.0000</r>
       <r>  23.5814  0.0000</r>
       <r>  23.7111  0.0000</r>
       <r>  24.0512  0.0000</r>
       <r>  24.5826  0.0000</r>
       <r>  24.5826  0.0000</r>
       <r>  24.9502  0.0000</r>
       <r>  24.9502  0.0000</r>
       <r>  25.6959  0.0000</r>
       <r>  26.2538  0.0000</r>
       <r>  26.6910  0.0000</r>
       <r>  26.7409  0.0000</r>
       <r>  26.7409  0.0000</r>
       <r>  26.9093  0.0000</r>
       <r>  27.9443  0.0000</r>
       <r>  28.0675  0.0000</r>
       <r>  28.6117  0.0000</r>
       <r>  28.7252  0.0000</r>
       <r>  28.7305  0.0000</r>
      </set>
      <set comment="kpoint 6">
       <r> -51.7951  1.0000</r>
       <r> -51.4284  1.0000</r>
       <r> -23.7096  1.0000</r>
       <r> -23.7096  1.0000</r>
       <r> -23.7095  1.0000</r>
       <r> -23.3527  1.0000</r>
       <r> -23.3523  1.0000</r>
       <r> -23.3523  1.0000</r>
       <r> -13.8347  1.0000</r>
       <r>  -5.1081  1.0000</r>
       <r>  -5.1056  1.0000</r>
       <r>  -5.1056  1.0000</r>
       <r>  -5.0787  1.0000</r>
       <r>  -5.0764  1.0000</r>
       <r>  -2.7662  1.0000</r>
       <r>  -2.1713  1.0000</r>
       <r>  -2.1713  1.0000</r>
       <r>  -1.5139  1.0000</r>
       <r>   2.8200  0.0000</r>
       <r>   3.8436  0.0000</r>
       <r>   3.8436  0.0000</r>
       <r>   5.2799  0.0000</r>
       <r>   5.5720  0.0000</r>
       <r>   6.9405  0.0000</r>
       <r>   6.9405  0.0000</r>
       <r>   7.4324  0.0000</r>
       <r>   8.1716  0.0000</r>
       <r>  10.4210  0.0000</r>
       <r>  10.6546  0.0000</r>
       <r>  10.6546  0.0000</r>
       <r>  11.0242  0.0000</r>
       <r>  14.5885  0.0000</r>
       <r>  14.5885  0.0000</r>
       <r>  14.8257  0.0000</r>
       <r>  14.9086  0.0000</r>
       <r>  16.6816  0.0000</r>
       <r>  18.0693  0.0000</r>
       <r>  18.1649  0.0000</r>
       <r>  18.5016  0.0000</r>
       <r>  18.5016  0.0000</r>
       <r>  18.9130  0.0000</r>
       <r>  19.2751  0.0000</r>
       <r>  19.2751  0.0000</r>
       <r>  20.1606  0.0000</r>
       <r>  21.1555  0.0000</r>
       <r>  21.2207  0.0000</r>
       <r>  21.7119  0.0000</r>
       <r>  21.7119  0.0000</r>
       <r>  22.3920  0.0000</r>
       <r>  23.5206  0.0000</r>
       <r>  23.5207  0.0000</r>
       <r>  23.5804  0.0000</r>
       <r>  23.7276  0.0000</r>
       <r>  24.4225  0.0000</r>
       <r>  24.4225  0.0000</r>
       <r>  24.7676  0.0000</r>
       <r>  24.7676  0.0000</r>
       <r>  25.8877  0.0000</r>
       <r>  26.4073  0.0000</r>
       <r>  26.9544  0.0000</r>
       <r>  27.0469  0.0000</r>
       <r>  27.0469  0.0000</r>
       <r>  27.2155  0.0000</r>
       <r>  28.0068  0.0000</r>
       <r>  28.4092  0.0000</r>
       <r>  29.0033  0.0000</r>
       <r>  29.3901  0.0000</r>
       <r>  29.4247  0.0000</r>
      </set>
      <set comment="kpoint 7">
       <r> -51.7951  1.0000</r>
       <r> -51.4284  1.0000</r>
       <r> -23.7097  1.0000</r>
       <r> -23.7097  1.0000</r>
       <r> -23.7094  1.0000</r>
       <r> -23.3528  1.0000</r>
       <r> -23.3523  1.0000</r>
       <r> -23.3522  1.0000</r>
       <r> -13.8321  1.0000</r>
       <r>  -5.1072  1.0000</r>
       <r>  -5.1038  1.0000</r>
       <r>  -5.1038  1.0000</r>
       <r>  -5.0793  1.0000</r>
       <r>  -5.0761  1.0000</r>
       <r>  -2.8481  1.0000</r>
       <r>  -2.1920  1.0000</r>
       <r>  -2.1920  1.0000</r>
       <r>  -1.3636  1.0000</r>
       <r>   2.6138  0.0000</r>
       <r>   3.8475  0.0000</r>
       <r>   3.8475  0.0000</r>
       <r>   5.0233  0.0000</r>
       <r>   5.8735  0.0000</r>
       <r>   7.1104  0.0000</r>
       <r>   7.1104  0.0000</r>
       <r>   7.5069  0.0000</r>
       <r>   8.2744  0.0000</r>
       <r>  10.3218  0.0000</r>
       <r>  10.5359  0.0000</r>
       <r>  10.5359  0.0000</r>
       <r>  11.3611  0.0000</r>
       <r>  14.4065  0.0000</r>
       <r>  14.5344  0.0000</r>
       <r>  14.5344  0.0000</r>
       <r>  14.9550  0.0000</r>
       <r>  16.7262  0.0000</r>
       <r>  17.7113  0.0000</r>
       <r>  18.2435  0.0000</r>
       <r>  18.2435  0.0000</r>
       <r>  18.4215  0.0000</r>
       <r>  18.9546  0.0000</r>
       <r>  19.4997  0.0000</r>
       <r>  19.4997  0.0000</r>
       <r>  19.9580  0.0000</r>
       <r>  20.9355  0.0000</r>
       <r>  21.3998  0.0000</r>
       <r>  21.3998  0.0000</r>
       <r>  21.6284  0.0000</r>
       <r>  22.2288  0.0000</r>
       <r>  23.4038  0.0000</r>
       <r>  23.4527  0.0000</r>
       <r>  23.5949  0.0000</r>
       <r>  23.5950  0.0000</r>
       <r>  24.3082  0.0000</r>
       <r>  24.3082  0.0000</r>
       <r>  24.6063  0.0000</r>
       <r>  24.6063  0.0000</r>
       <r>  26.0461  0.0000</r>
       <r>  26.5909  0.0000</r>
       <r>  27.2482  0.0000</r>
       <r>  27.3700  0.0000</r>
       <r>  27.3700  0.0000</r>
       <r>  27.4488  0.0000</r>
       <r>  28.0262  0.0000</r>
       <r>  28.8165  0.0000</r>
       <r>  29.4943  0.0000</r>
       <r>  29.8888  0.0000</r>
       <r>  29.9250  0.0000</r>
      </set>
      <set comment="kpoint 8">
       <r> -51.7950  1.0000</r>
       <r> -51.4284  1.0000</r>
       <r> -23.7097  1.0000</r>
       <r> -23.7097  1.0000</r>
       <r> -23.7093  1.0000</r>
       <r> -23.3528  1.0000</r>
       <r> -23.3522  1.0000</r>
       <r> -23.3522  1.0000</r>
       <r> -13.8292  1.0000</r>
       <r>  -5.1062  1.0000</r>
       <r>  -5.1017  1.0000</r>
       <r>  -5.1017  1.0000</r>
       <r>  -5.0799  1.0000</r>
       <r>  -5.0756  1.0000</r>
       <r>  -2.9224  1.0000</r>
       <r>  -2.2148  1.0000</r>
       <r>  -2.2148  1.0000</r>
       <r>  -1.2117  1.0000</r>
       <r>   2.4185  0.0000</r>
       <r>   3.8545  0.0000</r>
       <r>   3.8545  0.0000</r>
       <r>   4.7712  0.0000</r>
       <r>   6.1899  0.0000</r>
       <r>   7.3033  0.0000</r>
       <r>   7.3033  0.0000</r>
       <r>   7.5948  0.0000</r>
       <r>   8.3128  0.0000</r>
       <r>  10.2670  0.0000</r>
       <r>  10.4077  0.0000</r>
       <r>  10.4077  0.0000</r>
       <r>  11.7518  0.0000</r>
       <r>  13.9920  0.0000</r>
       <r>  14.4847  0.0000</r>
       <r>  14.4848  0.0000</r>
       <r>  15.0072  0.0000</r>
       <r>  16.7443  0.0000</r>
       <r>  17.2814  0.0000</r>
       <r>  17.9073  0.0000</r>
       <r>  17.9073  0.0000</r>
       <r>  18.7926  0.0000</r>
       <r>  18.9622  0.0000</r>
       <r>  19.6484  0.0000</r>
       <r>  19.7876  0.0000</r>
       <r>  19.7876  0.0000</r>
       <r>  20.7012  0.0000</r>
       <r>  21.0598  0.0000</r>
       <r>  21.0598  0.0000</r>
       <r>  22.0979  0.0000</r>
       <r>  22.1391  0.0000</r>
       <r>  23.0953  0.0000</r>
       <r>  23.3420  0.0000</r>
       <r>  23.6618  0.0000</r>
       <r>  23.6618  0.0000</r>
       <r>  24.2370  0.0000</r>
       <r>  24.2370  0.0000</r>
       <r>  24.5378  0.0000</r>
       <r>  24.5378  0.0000</r>
       <r>  26.1024  0.0000</r>
       <r>  26.8026  0.0000</r>
       <r>  27.5675  0.0000</r>
       <r>  27.6524  0.0000</r>
       <r>  27.7080  0.0000</r>
       <r>  27.7080  0.0000</r>
       <r>  28.0621  0.0000</r>
       <r>  29.0510  0.0000</r>
       <r>  29.4569  0.0000</r>
       <r>  30.1168  0.0000</r>
       <r>  30.3527  0.0000</r>
      </set>
      <set comment="kpoint 9">
       <r> -51.7950  1.0000</r>
       <r> -51.4284  1.0000</r>
       <r> -23.7098  1.0000</r>
       <r> -23.7098  1.0000</r>
       <r> -23.7093  1.0000</r>
       <r> -23.3529  1.0000</r>
       <r> -23.3521  1.0000</r>
       <r> -23.3521  1.0000</r>
       <r> -13.8260  1.0000</r>
       <r>  -5.1049  1.0000</r>
       <r>  -5.0994  1.0000</r>
       <r>  -5.0994  1.0000</r>
       <r>  -5.0805  1.0000</r>
       <r>  -5.0751  1.0000</r>
       <r>  -2.9888  1.0000</r>
       <r>  -2.2392  1.0000</r>
       <r>  -2.2392  1.0000</r>
       <r>  -1.0597  1.0000</r>
       <r>   2.2341  0.0000</r>
       <r>   3.8652  0.0000</r>
       <r>   3.8652  0.0000</r>
       <r>   4.5371  0.0000</r>
       <r>   6.5037  0.0000</r>
       <r>   7.5158  0.0000</r>
       <r>   7.5158  0.0000</r>
       <r>   7.6961  0.0000</r>
       <r>   8.2895  0.0000</r>
       <r>  10.2760  0.0000</r>
       <r>  10.2760  0.0000</r>
       <r>  10.2769  0.0000</r>
       <r>  12.1832  0.0000</r>
       <r>  13.5856  0.0000</r>
       <r>  14.4373  0.0000</r>
       <r>  14.4373  0.0000</r>
       <r>  15.0621  0.0000</r>
       <r>  16.6160  0.0000</r>
       <r>  16.9945  0.0000</r>
       <r>  17.5411  0.0000</r>
       <r>  17.5411  0.0000</r>
       <r>  18.9491  0.0000</r>
       <r>  19.0322  0.0000</r>
       <r>  19.4040  0.0000</r>
       <r>  20.0197  0.0000</r>
       <r>  20.0198  0.0000</r>
       <r>  20.5315  0.0000</r>
       <r>  20.8102  0.0000</r>
       <r>  20.8102  0.0000</r>
       <r>  21.9717  0.0000</r>
       <r>  22.6260  0.0000</r>
       <r>  22.8115  0.0000</r>
       <r>  23.2975  0.0000</r>
       <r>  23.6390  0.0000</r>
       <r>  23.6390  0.0000</r>
       <r>  24.1297  0.0000</r>
       <r>  24.1297  0.0000</r>
       <r>  24.6815  0.0000</r>
       <r>  24.6815  0.0000</r>
       <r>  26.0352  0.0000</r>
       <r>  27.0405  0.0000</r>
       <r>  27.7146  0.0000</r>
       <r>  27.9091  0.0000</r>
       <r>  28.0441  0.0000</r>
       <r>  28.0593  0.0000</r>
       <r>  28.0593  0.0000</r>
       <r>  28.9289  0.0000</r>
       <r>  29.7679  0.0000</r>
       <r>  30.6768  0.0000</r>
       <r>  30.7527  0.0000</r>
      </set>
      <set comment="kpoint 10">
       <r> -51.7950  1.0000</r>
       <r> -51.4284  1.0000</r>
       <r> -23.7099  1.0000</r>
       <r> -23.7099  1.0000</r>
       <r> -23.7093  1.0000</r>
       <r> -23.3531  1.0000</r>
       <r> -23.3521  1.0000</r>
       <r> -23.3520  1.0000</r>
       <r> -13.8228  1.0000</r>
       <r>  -5.1036  1.0000</r>
       <r>  -5.0970  1.0000</r>
       <r>  -5.0970  1.0000</r>
       <r>  -5.0810  1.0000</r>
       <r>  -5.0747  1.0000</r>
       <r>  -3.0476  1.0000</r>
       <r>  -2.2645  1.0000</r>
       <r>  -2.2645  1.0000</r>
       <r>  -0.9093  1.0000</r>
       <r>   2.0610  0.0009</r>
       <r>   3.8794  0.0000</r>
       <r>   3.8794  0.0000</r>
       <r>   4.3246  0.0000</r>
       <r>   6.7982  0.0000</r>
       <r>   7.7431  0.0000</r>
       <r>   7.7431  0.0000</r>
       <r>   7.8105  0.0000</r>
       <r>   8.2292  0.0000</r>
       <r>  10.1480  0.0000</r>
       <r>  10.1480  0.0000</r>
       <r>  10.3535  0.0000</r>
       <r>  12.6461  0.0000</r>
       <r>  13.1895  0.0000</r>
       <r>  14.3866  0.0000</r>
       <r>  14.3867  0.0000</r>
       <r>  15.1125  0.0000</r>
       <r>  16.2414  0.0000</r>
       <r>  16.9622  0.0000</r>
       <r>  17.1651  0.0000</r>
       <r>  17.1651  0.0000</r>
       <r>  18.6811  0.0000</r>
       <r>  18.9237  0.0000</r>
       <r>  19.7082  0.0000</r>
       <r>  19.9819  0.0000</r>
       <r>  19.9819  0.0000</r>
       <r>  20.4116  0.0000</r>
       <r>  20.8672  0.0000</r>
       <r>  20.8672  0.0000</r>
       <r>  21.8392  0.0000</r>
       <r>  22.5579  0.0000</r>
       <r>  22.8602  0.0000</r>
       <r>  23.5407  0.0000</r>
       <r>  23.5614  0.0000</r>
       <r>  23.5614  0.0000</r>
       <r>  23.9995  0.0000</r>
       <r>  23.9995  0.0000</r>
       <r>  24.9738  0.0000</r>
       <r>  24.9738  0.0000</r>
       <r>  25.8771  0.0000</r>
       <r>  27.2516  0.0000</r>
       <r>  27.3024  0.0000</r>
       <r>  28.2705  0.0000</r>
       <r>  28.2830  0.0000</r>
       <r>  28.4217  0.0000</r>
       <r>  28.4217  0.0000</r>
       <r>  29.0947  0.0000</r>
       <r>  30.1303  0.0000</r>
       <r>  31.0767  0.0000</r>
       <r>  31.1578  0.0000</r>
      </set>
      <set comment="kpoint 11">
       <r> -51.7950  1.0000</r>
       <r> -51.4284  1.0000</r>
       <r> -23.7100  1.0000</r>
       <r> -23.7100  1.0000</r>
       <r> -23.7092  1.0000</r>
       <r> -23.3531  1.0000</r>
       <r> -23.3520  1.0000</r>
       <r> -23.3520  1.0000</r>
       <r> -13.8195  1.0000</r>
       <r>  -5.1023  1.0000</r>
       <r>  -5.0946  1.0000</r>
       <r>  -5.0946  1.0000</r>
       <r>  -5.0814  1.0000</r>
       <r>  -5.0742  1.0000</r>
       <r>  -3.0989  1.0000</r>
       <r>  -2.2899  1.0000</r>
       <r>  -2.2899  1.0000</r>
       <r>  -0.7623  1.0000</r>
       <r>   1.8990  0.9259</r>
       <r>   3.8969  0.0000</r>
       <r>   3.8969  0.0000</r>
       <r>   4.1360  0.0000</r>
       <r>   7.0372  0.0000</r>
       <r>   7.9378  0.0000</r>
       <r>   7.9785  0.0000</r>
       <r>   7.9785  0.0000</r>
       <r>   8.1866  0.0000</r>
       <r>  10.0330  0.0000</r>
       <r>  10.0330  0.0000</r>
       <r>  10.4859  0.0000</r>
       <r>  12.8051  0.0000</r>
       <r>  13.1321  0.0000</r>
       <r>  14.3232  0.0000</r>
       <r>  14.3232  0.0000</r>
       <r>  15.1349  0.0000</r>
       <r>  15.8401  0.0000</r>
       <r>  16.7959  0.0000</r>
       <r>  16.7959  0.0000</r>
       <r>  16.9911  0.0000</r>
       <r>  18.2113  0.0000</r>
       <r>  18.8916  0.0000</r>
       <r>  19.7349  0.0000</r>
       <r>  19.7349  0.0000</r>
       <r>  20.0153  0.0000</r>
       <r>  20.4151  0.0000</r>
       <r>  21.1653  0.0000</r>
       <r>  21.1653  0.0000</r>
       <r>  21.7004  0.0000</r>
       <r>  22.3348  0.0000</r>
       <r>  22.8318  0.0000</r>
       <r>  23.4701  0.0000</r>
       <r>  23.4701  0.0000</r>
       <r>  23.8818  0.0000</r>
       <r>  23.8819  0.0000</r>
       <r>  24.0761  0.0000</r>
       <r>  25.3348  0.0000</r>
       <r>  25.3348  0.0000</r>
       <r>  25.6676  0.0000</r>
       <r>  26.6545  0.0000</r>
       <r>  27.5866  0.0000</r>
       <r>  28.5769  0.0000</r>
       <r>  28.6503  0.0000</r>
       <r>  28.7919  0.0000</r>
       <r>  28.7919  0.0000</r>
       <r>  29.4097  0.0000</r>
       <r>  30.4114  0.0000</r>
       <r>  31.1787  0.0000</r>
       <r>  31.2301  0.0000</r>
      </set>
      <set comment="kpoint 12">
       <r> -51.7950  1.0000</r>
       <r> -51.4284  1.0000</r>
       <r> -23.7101  1.0000</r>
       <r> -23.7101  1.0000</r>
       <r> -23.7092  1.0000</r>
       <r> -23.3532  1.0000</r>
       <r> -23.3520  1.0000</r>
       <r> -23.3519  1.0000</r>
       <r> -13.8163  1.0000</r>
       <r>  -5.1010  1.0000</r>
       <r>  -5.0921  1.0000</r>
       <r>  -5.0921  1.0000</r>
       <r>  -5.0817  1.0000</r>
       <r>  -5.0737  1.0000</r>
       <r>  -3.1432  1.0000</r>
       <r>  -2.3148  1.0000</r>
       <r>  -2.3148  1.0000</r>
       <r>  -0.6206  1.0000</r>
       <r>   1.7484  1.0000</r>
       <r>   3.9171  0.0000</r>
       <r>   3.9171  0.0000</r>
       <r>   3.9727  0.0000</r>
       <r>   7.1562  0.0000</r>
       <r>   8.0779  0.0000</r>
       <r>   8.2112  0.0000</r>
       <r>   8.2113  0.0000</r>
       <r>   8.2455  0.0000</r>
       <r>   9.9441  0.0000</r>
       <r>   9.9441  0.0000</r>
       <r>  10.6599  0.0000</r>
       <r>  12.4337  0.0000</r>
       <r>  13.6301  0.0000</r>
       <r>  14.2325  0.0000</r>
       <r>  14.2325  0.0000</r>
       <r>  15.0366  0.0000</r>
       <r>  15.5610  0.0000</r>
       <r>  16.4525  0.0000</r>
       <r>  16.4525  0.0000</r>
       <r>  17.0296  0.0000</r>
       <r>  17.7358  0.0000</r>
       <r>  18.8566  0.0000</r>
       <r>  19.4558  0.0000</r>
       <r>  19.4558  0.0000</r>
       <r>  20.0164  0.0000</r>
       <r>  20.7248  0.0000</r>
       <r>  21.5160  0.0000</r>
       <r>  21.5160  0.0000</r>
       <r>  21.5724  0.0000</r>
       <r>  22.1365  0.0000</r>
       <r>  22.7543  0.0000</r>
       <r>  23.3817  0.0000</r>
       <r>  23.3817  0.0000</r>
       <r>  23.7940  0.0000</r>
       <r>  23.7940  0.0000</r>
       <r>  24.6859  0.0000</r>
       <r>  25.4302  0.0000</r>
       <r>  25.7345  0.0000</r>
       <r>  25.7346  0.0000</r>
       <r>  26.0668  0.0000</r>
       <r>  27.8910  0.0000</r>
       <r>  28.8402  0.0000</r>
       <r>  29.0471  0.0000</r>
       <r>  29.1617  0.0000</r>
       <r>  29.1617  0.0000</r>
       <r>  29.7873  0.0000</r>
       <r>  30.5713  0.0000</r>
       <r>  30.9747  0.0000</r>
       <r>  30.9770  0.0000</r>
      </set>
      <set comment="kpoint 13">
       <r> -51.7950  1.0000</r>
       <r> -51.4284  1.0000</r>
       <r> -23.7102  1.0000</r>
       <r> -23.7102  1.0000</r>
       <r> -23.7092  1.0000</r>
       <r> -23.3534  1.0000</r>
       <r> -23.3519  1.0000</r>
       <r> -23.3519  1.0000</r>
       <r> -13.8133  1.0000</r>
       <r>  -5.1000  1.0000</r>
       <r>  -5.0898  1.0000</r>
       <r>  -5.0898  1.0000</r>
       <r>  -5.0816  1.0000</r>
       <r>  -5.0732  1.0000</r>
       <r>  -3.1806  1.0000</r>
       <r>  -2.3385  1.0000</r>
       <r>  -2.3385  1.0000</r>
       <r>  -0.4863  1.0000</r>
       <r>   1.6095  1.0000</r>
       <r>   3.8354  0.0000</r>
       <r>   3.9391  0.0000</r>
       <r>   3.9391  0.0000</r>
       <r>   7.1289  0.0000</r>
       <r>   8.2300  0.0000</r>
       <r>   8.4239  0.0000</r>
       <r>   8.4240  0.0000</r>
       <r>   8.4482  0.0000</r>
       <r>   9.9007  0.0000</r>
       <r>   9.9007  0.0000</r>
       <r>  10.8621  0.0000</r>
       <r>  12.0764  0.0000</r>
       <r>  14.0965  0.0000</r>
       <r>  14.0965  0.0000</r>
       <r>  14.1046  0.0000</r>
       <r>  14.7558  0.0000</r>
       <r>  15.5008  0.0000</r>
       <r>  16.1565  0.0000</r>
       <r>  16.1565  0.0000</r>
       <r>  17.0647  0.0000</r>
       <r>  17.2823  0.0000</r>
       <r>  18.8214  0.0000</r>
       <r>  19.1902  0.0000</r>
       <r>  19.1902  0.0000</r>
       <r>  19.9080  0.0000</r>
       <r>  21.0275  0.0000</r>
       <r>  21.5510  0.0000</r>
       <r>  21.8546  0.0000</r>
       <r>  21.8546  0.0000</r>
       <r>  21.9560  0.0000</r>
       <r>  22.6736  0.0000</r>
       <r>  23.3019  0.0000</r>
       <r>  23.3019  0.0000</r>
       <r>  23.7544  0.0000</r>
       <r>  23.7545  0.0000</r>
       <r>  25.1675  0.0000</r>
       <r>  25.3197  0.0000</r>
       <r>  25.5464  0.0000</r>
       <r>  26.1604  0.0000</r>
       <r>  26.1604  0.0000</r>
       <r>  28.2138  0.0000</r>
       <r>  29.0120  0.0000</r>
       <r>  29.4600  0.0000</r>
       <r>  29.5031  0.0000</r>
       <r>  29.5031  0.0000</r>
       <r>  30.1902  0.0000</r>
       <r>  30.6433  0.0000</r>
       <r>  30.6559  0.0000</r>
       <r>  30.6564  0.0000</r>
      </set>
      <set comment="kpoint 14">
       <r> -51.7950  1.0000</r>
       <r> -51.4284  1.0000</r>
       <r> -23.7102  1.0000</r>
       <r> -23.7102  1.0000</r>
       <r> -23.7092  1.0000</r>
       <r> -23.3535  1.0000</r>
       <r> -23.3518  1.0000</r>
       <r> -23.3518  1.0000</r>
       <r> -13.8105  1.0000</r>
       <r>  -5.0992  1.0000</r>
       <r>  -5.0875  1.0000</r>
       <r>  -5.0875  1.0000</r>
       <r>  -5.0812  1.0000</r>
       <r>  -5.0728  1.0000</r>
       <r>  -3.2118  1.0000</r>
       <r>  -2.3603  1.0000</r>
       <r>  -2.3603  1.0000</r>
       <r>  -0.3615  1.0000</r>
       <r>   1.4828  1.0000</r>
       <r>   3.7242  0.0000</r>
       <r>   3.9618  0.0000</r>
       <r>   3.9618  0.0000</r>
       <r>   7.0134  0.0000</r>
       <r>   8.3934  0.0000</r>
       <r>   8.5918  0.0000</r>
       <r>   8.5918  0.0000</r>
       <r>   8.7484  0.0000</r>
       <r>   9.9292  0.0000</r>
       <r>   9.9292  0.0000</r>
       <r>  11.0793  0.0000</r>
       <r>  11.7345  0.0000</r>
       <r>  13.8990  0.0000</r>
       <r>  13.8990  0.0000</r>
       <r>  14.1950  0.0000</r>
       <r>  14.7718  0.0000</r>
       <r>  15.5269  0.0000</r>
       <r>  15.9269  0.0000</r>
       <r>  15.9269  0.0000</r>
       <r>  16.8436  0.0000</r>
       <r>  17.1247  0.0000</r>
       <r>  18.7878  0.0000</r>
       <r>  18.9495  0.0000</r>
       <r>  18.9495  0.0000</r>
       <r>  19.7826  0.0000</r>
       <r>  21.0107  0.0000</r>
       <r>  21.7179  0.0000</r>
       <r>  21.9047  0.0000</r>
       <r>  22.1423  0.0000</r>
       <r>  22.1424  0.0000</r>
       <r>  22.5993  0.0000</r>
       <r>  23.2317  0.0000</r>
       <r>  23.2317  0.0000</r>
       <r>  23.7880  0.0000</r>
       <r>  23.7881  0.0000</r>
       <r>  24.8587  0.0000</r>
       <r>  25.1576  0.0000</r>
       <r>  25.9625  0.0000</r>
       <r>  26.6040  0.0000</r>
       <r>  26.6041  0.0000</r>
       <r>  28.5535  0.0000</r>
       <r>  29.0102  0.0000</r>
       <r>  29.6846  0.0000</r>
       <r>  29.6846  0.0000</r>
       <r>  29.8878  0.0000</r>
       <r>  30.4612  0.0000</r>
       <r>  30.4614  0.0000</r>
       <r>  30.5614  0.0000</r>
       <r>  30.7646  0.0000</r>
      </set>
      <set comment="kpoint 15">
       <r> -51.7950  1.0000</r>
       <r> -51.4284  1.0000</r>
       <r> -23.7103  1.0000</r>
       <r> -23.7103  1.0000</r>
       <r> -23.7092  1.0000</r>
       <r> -23.3536  1.0000</r>
       <r> -23.3517  1.0000</r>
       <r> -23.3517  1.0000</r>
       <r> -13.8079  1.0000</r>
       <r>  -5.0987  1.0000</r>
       <r>  -5.0855  1.0000</r>
       <r>  -5.0855  1.0000</r>
       <r>  -5.0806  1.0000</r>
       <r>  -5.0724  1.0000</r>
       <r>  -3.2371  1.0000</r>
       <r>  -2.3798  1.0000</r>
       <r>  -2.3798  1.0000</r>
       <r>  -0.2483  1.0000</r>
       <r>   1.3692  1.0000</r>
       <r>   3.6379  0.0000</r>
       <r>   3.9841  0.0000</r>
       <r>   3.9841  0.0000</r>
       <r>   6.8680  0.0000</r>
       <r>   8.5668  0.0000</r>
       <r>   8.6942  0.0000</r>
       <r>   8.6942  0.0000</r>
       <r>   9.0967  0.0000</r>
       <r>  10.0508  0.0000</r>
       <r>  10.0509  0.0000</r>
       <r>  11.2946  0.0000</r>
       <r>  11.4096  0.0000</r>
       <r>  13.6359  0.0000</r>
       <r>  13.6359  0.0000</r>
       <r>  13.8513  0.0000</r>
       <r>  15.1381  0.0000</r>
       <r>  15.5979  0.0000</r>
       <r>  15.7699  0.0000</r>
       <r>  15.7699  0.0000</r>
       <r>  16.5137  0.0000</r>
       <r>  17.1640  0.0000</r>
       <r>  18.7382  0.0000</r>
       <r>  18.7382  0.0000</r>
       <r>  18.7574  0.0000</r>
       <r>  19.6567  0.0000</r>
       <r>  20.8143  0.0000</r>
       <r>  21.5780  0.0000</r>
       <r>  22.2889  0.0000</r>
       <r>  22.3488  0.0000</r>
       <r>  22.3488  0.0000</r>
       <r>  22.5344  0.0000</r>
       <r>  23.1701  0.0000</r>
       <r>  23.1701  0.0000</r>
       <r>  23.9167  0.0000</r>
       <r>  23.9167  0.0000</r>
       <r>  24.5496  0.0000</r>
       <r>  24.8977  0.0000</r>
       <r>  26.6024  0.0000</r>
       <r>  27.0558  0.0000</r>
       <r>  27.0559  0.0000</r>
       <r>  28.7981  0.0000</r>
       <r>  28.9092  0.0000</r>
       <r>  29.5019  0.0000</r>
       <r>  29.5019  0.0000</r>
       <r>  30.3286  0.0000</r>
       <r>  30.6339  0.0000</r>
       <r>  30.6340  0.0000</r>
       <r>  30.8155  0.0000</r>
       <r>  31.1000  0.0000</r>
      </set>
      <set comment="kpoint 16">
       <r> -51.7950  1.0000</r>
       <r> -51.4284  1.0000</r>
       <r> -23.7103  1.0000</r>
       <r> -23.7103  1.0000</r>
       <r> -23.7092  1.0000</r>
       <r> -23.3536  1.0000</r>
       <r> -23.3517  1.0000</r>
       <r> -23.3517  1.0000</r>
       <r> -13.8058  1.0000</r>
       <r>  -5.0986  1.0000</r>
       <r>  -5.0837  1.0000</r>
       <r>  -5.0837  1.0000</r>
       <r>  -5.0797  1.0000</r>
       <r>  -5.0720  1.0000</r>
       <r>  -3.2571  1.0000</r>
       <r>  -2.3965  1.0000</r>
       <r>  -2.3965  1.0000</r>
       <r>  -0.1491  1.0000</r>
       <r>   1.2701  1.0000</r>
       <r>   3.5743  0.0000</r>
       <r>   4.0046  0.0000</r>
       <r>   4.0046  0.0000</r>
       <r>   6.7238  0.0000</r>
       <r>   8.7350  0.0000</r>
       <r>   8.7350  0.0000</r>
       <r>   8.7474  0.0000</r>
       <r>   9.4691  0.0000</r>
       <r>  10.2613  0.0000</r>
       <r>  10.2614  0.0000</r>
       <r>  11.1048  0.0000</r>
       <r>  11.4790  0.0000</r>
       <r>  13.3195  0.0000</r>
       <r>  13.3195  0.0000</r>
       <r>  13.5087  0.0000</r>
       <r>  15.2111  0.0000</r>
       <r>  15.6755  0.0000</r>
       <r>  15.6755  0.0000</r>
       <r>  15.8150  0.0000</r>
       <r>  16.3894  0.0000</r>
       <r>  17.2143  0.0000</r>
       <r>  18.5593  0.0000</r>
       <r>  18.5594  0.0000</r>
       <r>  18.7312  0.0000</r>
       <r>  19.5389  0.0000</r>
       <r>  20.5226  0.0000</r>
       <r>  21.4337  0.0000</r>
       <r>  22.4693  0.0000</r>
       <r>  22.4694  0.0000</r>
       <r>  22.4803  0.0000</r>
       <r>  22.6724  0.0000</r>
       <r>  23.1173  0.0000</r>
       <r>  23.1173  0.0000</r>
       <r>  24.1338  0.0000</r>
       <r>  24.1338  0.0000</r>
       <r>  24.3476  0.0000</r>
       <r>  24.7059  0.0000</r>
       <r>  27.2237  0.0000</r>
       <r>  27.4958  0.0000</r>
       <r>  27.4959  0.0000</r>
       <r>  28.4374  0.0000</r>
       <r>  29.1816  0.0000</r>
       <r>  29.1816  0.0000</r>
       <r>  29.2816  0.0000</r>
       <r>  30.7787  0.0000</r>
       <r>  30.9653  0.0000</r>
       <r>  30.9654  0.0000</r>
       <r>  31.0937  0.0000</r>
       <r>  31.5003  0.0000</r>
      </set>
      <set comment="kpoint 17">
       <r> -51.7950  1.0000</r>
       <r> -51.4284  1.0000</r>
       <r> -23.7104  1.0000</r>
       <r> -23.7104  1.0000</r>
       <r> -23.7091  1.0000</r>
       <r> -23.3537  1.0000</r>
       <r> -23.3517  1.0000</r>
       <r> -23.3516  1.0000</r>
       <r> -13.8041  1.0000</r>
       <r>  -5.0985  1.0000</r>
       <r>  -5.0823  1.0000</r>
       <r>  -5.0823  1.0000</r>
       <r>  -5.0789  1.0000</r>
       <r>  -5.0718  1.0000</r>
       <r>  -3.2721  1.0000</r>
       <r>  -2.4099  1.0000</r>
       <r>  -2.4099  1.0000</r>
       <r>  -0.0665  1.0000</r>
       <r>   1.1877  1.0000</r>
       <r>   3.5306  0.0000</r>
       <r>   4.0222  0.0000</r>
       <r>   4.0222  0.0000</r>
       <r>   6.5977  0.0000</r>
       <r>   8.7380  0.0000</r>
       <r>   8.7381  0.0000</r>
       <r>   8.9301  0.0000</r>
       <r>   9.8537  0.0000</r>
       <r>  10.5337  0.0000</r>
       <r>  10.5337  0.0000</r>
       <r>  10.8252  0.0000</r>
       <r>  11.5791  0.0000</r>
       <r>  12.9714  0.0000</r>
       <r>  12.9715  0.0000</r>
       <r>  13.2521  0.0000</r>
       <r>  15.0166  0.0000</r>
       <r>  15.6255  0.0000</r>
       <r>  15.6255  0.0000</r>
       <r>  15.9423  0.0000</r>
       <r>  16.6183  0.0000</r>
       <r>  17.2979  0.0000</r>
       <r>  18.4157  0.0000</r>
       <r>  18.4157  0.0000</r>
       <r>  18.7100  0.0000</r>
       <r>  19.4361  0.0000</r>
       <r>  20.1455  0.0000</r>
       <r>  21.3244  0.0000</r>
       <r>  22.4378  0.0000</r>
       <r>  22.5278  0.0000</r>
       <r>  22.5278  0.0000</r>
       <r>  22.9527  0.0000</r>
       <r>  23.0744  0.0000</r>
       <r>  23.0744  0.0000</r>
       <r>  24.3009  0.0000</r>
       <r>  24.3979  0.0000</r>
       <r>  24.3980  0.0000</r>
       <r>  24.5804  0.0000</r>
       <r>  27.8005  0.0000</r>
       <r>  27.8639  0.0000</r>
       <r>  27.8639  0.0000</r>
       <r>  28.0130  0.0000</r>
       <r>  28.9282  0.0000</r>
       <r>  28.9282  0.0000</r>
       <r>  29.6744  0.0000</r>
       <r>  31.2250  0.0000</r>
       <r>  31.2591  0.0000</r>
       <r>  31.2618  0.0000</r>
       <r>  31.4152  0.0000</r>
       <r>  31.8942  0.0000</r>
      </set>
      <set comment="kpoint 18">
       <r> -51.7950  1.0000</r>
       <r> -51.4284  1.0000</r>
       <r> -23.7104  1.0000</r>
       <r> -23.7104  1.0000</r>
       <r> -23.7092  1.0000</r>
       <r> -23.3538  1.0000</r>
       <r> -23.3516  1.0000</r>
       <r> -23.3516  1.0000</r>
       <r> -13.8028  1.0000</r>
       <r>  -5.0986  1.0000</r>
       <r>  -5.0812  1.0000</r>
       <r>  -5.0812  1.0000</r>
       <r>  -5.0781  1.0000</r>
       <r>  -5.0716  1.0000</r>
       <r>  -3.2825  1.0000</r>
       <r>  -2.4197  1.0000</r>
       <r>  -2.4197  1.0000</r>
       <r>  -0.0036  1.0000</r>
       <r>   1.1249  1.0000</r>
       <r>   3.5030  0.0000</r>
       <r>   4.0356  0.0000</r>
       <r>   4.0356  0.0000</r>
       <r>   6.5003  0.0000</r>
       <r>   8.7265  0.0000</r>
       <r>   8.7265  0.0000</r>
       <r>   9.1038  0.0000</r>
       <r>  10.2424  0.0000</r>
       <r>  10.5823  0.0000</r>
       <r>  10.8349  0.0000</r>
       <r>  10.8350  0.0000</r>
       <r>  11.5261  0.0000</r>
       <r>  12.6185  0.0000</r>
       <r>  12.6185  0.0000</r>
       <r>  13.1414  0.0000</r>
       <r>  14.7530  0.0000</r>
       <r>  15.6023  0.0000</r>
       <r>  15.6023  0.0000</r>
       <r>  15.9750  0.0000</r>
       <r>  16.9125  0.0000</r>
       <r>  17.5042  0.0000</r>
       <r>  18.3101  0.0000</r>
       <r>  18.3101  0.0000</r>
       <r>  18.6945  0.0000</r>
       <r>  19.3507  0.0000</r>
       <r>  19.7126  0.0000</r>
       <r>  21.2518  0.0000</r>
       <r>  22.4072  0.0000</r>
       <r>  22.5523  0.0000</r>
       <r>  22.5523  0.0000</r>
       <r>  23.0427  0.0000</r>
       <r>  23.0427  0.0000</r>
       <r>  23.0948  0.0000</r>
       <r>  24.3114  0.0000</r>
       <r>  24.6122  0.0000</r>
       <r>  24.6540  0.0000</r>
       <r>  24.6540  0.0000</r>
       <r>  27.5965  0.0000</r>
       <r>  28.0037  0.0000</r>
       <r>  28.0038  0.0000</r>
       <r>  28.2888  0.0000</r>
       <r>  28.9291  0.0000</r>
       <r>  28.9291  0.0000</r>
       <r>  30.0951  0.0000</r>
       <r>  31.3033  0.0000</r>
       <r>  31.3134  0.0000</r>
       <r>  31.5892  0.0000</r>
       <r>  31.8460  0.0000</r>
       <r>  32.2558  0.0000</r>
      </set>
      <set comment="kpoint 19">
       <r> -51.7950  1.0000</r>
       <r> -51.4284  1.0000</r>
       <r> -23.7105  1.0000</r>
       <r> -23.7105  1.0000</r>
       <r> -23.7091  1.0000</r>
       <r> -23.3537  1.0000</r>
       <r> -23.3516  1.0000</r>
       <r> -23.3516  1.0000</r>
       <r> -13.8020  1.0000</r>
       <r>  -5.0987  1.0000</r>
       <r>  -5.0806  1.0000</r>
       <r>  -5.0806  1.0000</r>
       <r>  -5.0776  1.0000</r>
       <r>  -5.0715  1.0000</r>
       <r>  -3.2886  1.0000</r>
       <r>  -2.4256  1.0000</r>
       <r>  -2.4256  1.0000</r>
       <r>   0.0361  1.0000</r>
       <r>   1.0851  1.0000</r>
       <r>   3.4882  0.0000</r>
       <r>   4.0441  0.0000</r>
       <r>   4.0441  0.0000</r>
       <r>   6.4390  0.0000</r>
       <r>   8.7148  0.0000</r>
       <r>   8.7148  0.0000</r>
       <r>   9.2430  0.0000</r>
       <r>  10.4016  0.0000</r>
       <r>  10.6265  0.0000</r>
       <r>  11.1179  0.0000</r>
       <r>  11.1179  0.0000</r>
       <r>  11.3102  0.0000</r>
       <r>  12.3050  0.0000</r>
       <r>  12.3050  0.0000</r>
       <r>  13.1569  0.0000</r>
       <r>  14.5304  0.0000</r>
       <r>  15.5934  0.0000</r>
       <r>  15.5934  0.0000</r>
       <r>  15.9928  0.0000</r>
       <r>  17.0373  0.0000</r>
       <r>  17.8732  0.0000</r>
       <r>  18.2455  0.0000</r>
       <r>  18.2455  0.0000</r>
       <r>  18.6851  0.0000</r>
       <r>  19.2016  0.0000</r>
       <r>  19.3659  0.0000</r>
       <r>  21.2108  0.0000</r>
       <r>  22.3888  0.0000</r>
       <r>  22.5610  0.0000</r>
       <r>  22.5610  0.0000</r>
       <r>  23.0234  0.0000</r>
       <r>  23.0234  0.0000</r>
       <r>  23.1445  0.0000</r>
       <r>  24.2742  0.0000</r>
       <r>  24.7887  0.0000</r>
       <r>  24.8443  0.0000</r>
       <r>  24.8444  0.0000</r>
       <r>  27.2678  0.0000</r>
       <r>  27.9329  0.0000</r>
       <r>  27.9329  0.0000</r>
       <r>  28.6254  0.0000</r>
       <r>  29.1546  0.0000</r>
       <r>  29.1546  0.0000</r>
       <r>  30.5464  0.0000</r>
       <r>  31.0902  0.0000</r>
       <r>  31.0905  0.0000</r>
       <r>  31.4703  0.0000</r>
       <r>  32.0589  0.0000</r>
       <r>  32.4743  0.0000</r>
      </set>
      <set comment="kpoint 20">
       <r> -51.7950  1.0000</r>
       <r> -51.4285  1.0000</r>
       <r> -23.7105  1.0000</r>
       <r> -23.7105  1.0000</r>
       <r> -23.7092  1.0000</r>
       <r> -23.3539  1.0000</r>
       <r> -23.3517  1.0000</r>
       <r> -23.3517  1.0000</r>
       <r> -13.8018  1.0000</r>
       <r>  -5.0987  1.0000</r>
       <r>  -5.0804  1.0000</r>
       <r>  -5.0804  1.0000</r>
       <r>  -5.0775  1.0000</r>
       <r>  -5.0714  1.0000</r>
       <r>  -3.2906  1.0000</r>
       <r>  -2.4276  1.0000</r>
       <r>  -2.4276  1.0000</r>
       <r>   0.0498  1.0000</r>
       <r>   1.0713  1.0000</r>
       <r>   3.4836  0.0000</r>
       <r>   4.0470  0.0000</r>
       <r>   4.0470  0.0000</r>
       <r>   6.4180  0.0000</r>
       <r>   8.7102  0.0000</r>
       <r>   8.7102  0.0000</r>
       <r>   9.3003  0.0000</r>
       <r>  10.3304  0.0000</r>
       <r>  10.9804  0.0000</r>
       <r>  11.0036  0.0000</r>
       <r>  11.2589  0.0000</r>
       <r>  11.2589  0.0000</r>
       <r>  12.1539  0.0000</r>
       <r>  12.1539  0.0000</r>
       <r>  13.1855  0.0000</r>
       <r>  14.4396  0.0000</r>
       <r>  15.5912  0.0000</r>
       <r>  15.5912  0.0000</r>
       <r>  15.9992  0.0000</r>
       <r>  17.0650  0.0000</r>
       <r>  18.1175  0.0000</r>
       <r>  18.2237  0.0000</r>
       <r>  18.2237  0.0000</r>
       <r>  18.6819  0.0000</r>
       <r>  18.9753  0.0000</r>
       <r>  19.3195  0.0000</r>
       <r>  21.1976  0.0000</r>
       <r>  22.3826  0.0000</r>
       <r>  22.5630  0.0000</r>
       <r>  22.5630  0.0000</r>
       <r>  23.0169  0.0000</r>
       <r>  23.0169  0.0000</r>
       <r>  23.1553  0.0000</r>
       <r>  24.2556  0.0000</r>
       <r>  24.8820  0.0000</r>
       <r>  24.9158  0.0000</r>
       <r>  24.9159  0.0000</r>
       <r>  27.1358  0.0000</r>
       <r>  27.8831  0.0000</r>
       <r>  27.8832  0.0000</r>
       <r>  28.7469  0.0000</r>
       <r>  29.2853  0.0000</r>
       <r>  29.2854  0.0000</r>
       <r>  30.9134  0.0000</r>
       <r>  30.9590  0.0000</r>
       <r>  30.9591  0.0000</r>
       <r>  31.1658  0.0000</r>
       <r>  32.1953  0.0000</r>
       <r>  32.7366  0.0000</r>
      </set>
      <set comment="kpoint 21">
       <r> -51.7950  1.0000</r>
       <r> -51.4285  1.0000</r>
       <r> -23.7105  1.0000</r>
       <r> -23.7105  1.0000</r>
       <r> -23.7092  1.0000</r>
       <r> -23.3539  1.0000</r>
       <r> -23.3517  1.0000</r>
       <r> -23.3517  1.0000</r>
       <r> -13.8018  1.0000</r>
       <r>  -5.0987  1.0000</r>
       <r>  -5.0804  1.0000</r>
       <r>  -5.0804  1.0000</r>
       <r>  -5.0775  1.0000</r>
       <r>  -5.0714  1.0000</r>
       <r>  -3.2906  1.0000</r>
       <r>  -2.4276  1.0000</r>
       <r>  -2.4276  1.0000</r>
       <r>   0.0498  1.0000</r>
       <r>   1.0713  1.0000</r>
       <r>   3.4836  0.0000</r>
       <r>   4.0470  0.0000</r>
       <r>   4.0470  0.0000</r>
       <r>   6.4180  0.0000</r>
       <r>   8.7102  0.0000</r>
       <r>   8.7102  0.0000</r>
       <r>   9.3003  0.0000</r>
       <r>  10.3304  0.0000</r>
       <r>  10.9804  0.0000</r>
       <r>  11.0036  0.0000</r>
       <r>  11.2589  0.0000</r>
       <r>  11.2589  0.0000</r>
       <r>  12.1539  0.0000</r>
       <r>  12.1539  0.0000</r>
       <r>  13.1855  0.0000</r>
       <r>  14.4396  0.0000</r>
       <r>  15.5912  0.0000</r>
       <r>  15.5912  0.0000</r>
       <r>  15.9992  0.0000</r>
       <r>  17.0650  0.0000</r>
       <r>  18.1175  0.0000</r>
       <r>  18.2237  0.0000</r>
       <r>  18.2237  0.0000</r>
       <r>  18.6819  0.0000</r>
       <r>  18.9753  0.0000</r>
       <r>  19.3195  0.0000</r>
       <r>  21.1976  0.0000</r>
       <r>  22.3826  0.0000</r>
       <r>  22.5630  0.0000</r>
       <r>  22.5630  0.0000</r>
       <r>  23.0169  0.0000</r>
       <r>  23.0169  0.0000</r>
       <r>  23.1553  0.0000</r>
       <r>  24.2556  0.0000</r>
       <r>  24.8820  0.0000</r>
       <r>  24.9158  0.0000</r>
       <r>  24.9159  0.0000</r>
       <r>  27.1358  0.0000</r>
       <r>  27.8831  0.0000</r>
       <r>  27.8832  0.0000</r>
       <r>  28.7469  0.0000</r>
       <r>  29.2853  0.0000</r>
       <r>  29.2854  0.0000</r>
[...]
       <r>  11.6961  0.0000</r>
       <r>  11.9455  0.0000</r>
       <r>  12.5501  0.0000</r>
       <r>  12.6737  0.0000</r>
       <r>  13.6018  0.0000</r>
       <r>  14.6961  0.0000</r>
       <r>  14.9712  0.0000</r>
       <r>  15.7196  0.0000</r>
       <r>  16.6643  0.0000</r>
       <r>  17.2677  0.0000</r>
       <r>  17.8887  0.0000</r>
       <r>  18.4779  0.0000</r>
       <r>  18.5358  0.0000</r>
       <r>  18.8332  0.0000</r>
       <r>  19.4109  0.0000</r>
       <r>  20.1911  0.0000</r>
       <r>  21.1110  0.0000</r>
       <r>  21.5186  0.0000</r>
       <r>  22.4703  0.0000</r>
       <r>  23.0286  0.0000</r>
       <r>  23.0947  0.0000</r>
       <r>  23.7004  0.0000</r>
       <r>  24.6710  0.0000</r>
       <r>  24.8522  0.0000</r>
       <r>  25.0354  0.0000</r>
       <r>  25.2753  0.0000</r>
       <r>  25.9465  0.0000</r>
       <r>  26.8562  0.0000</r>
       <r>  27.2039  0.0000</r>
       <r>  28.1783  0.0000</r>
       <r>  29.1134  0.0000</r>
       <r>  29.1358  0.0000</r>
       <r>  29.6496  0.0000</r>
       <r>  30.3403  0.0000</r>
       <r>  30.9921  0.0000</r>
       <r>  31.0295  0.0000</r>
       <r>  31.3907  0.0000</r>
       <r>  31.8134  0.0000</r>
       <r>  31.9414  0.0000</r>
      </set>
      <set comment="kpoint 193">
       <r> -51.7779  1.0000</r>
       <r> -51.3951  1.0000</r>
       <r> -23.6909  1.0000</r>
       <r> -23.6907  1.0000</r>
       <r> -23.6896  1.0000</r>
       <r> -23.3152  1.0000</r>
       <r> -23.3134  1.0000</r>
       <r> -23.3133  1.0000</r>
       <r> -13.7063  1.0000</r>
       <r>  -5.0798  1.0000</r>
       <r>  -5.0666  1.0000</r>
       <r>  -5.0653  1.0000</r>
       <r>  -5.0567  1.0000</r>
       <r>  -5.0560  1.0000</r>
       <r>  -3.1542  1.0000</r>
       <r>  -2.3795  1.0000</r>
       <r>  -2.3278  1.0000</r>
       <r>   0.2008  1.0000</r>
       <r>   1.5623  1.0000</r>
       <r>   3.7337  0.0000</r>
       <r>   4.3713  0.0000</r>
       <r>   4.3733  0.0000</r>
       <r>   6.9022  0.0000</r>
       <r>   8.6205  0.0000</r>
       <r>   8.8905  0.0000</r>
       <r>   9.5581  0.0000</r>
       <r>  10.7762  0.0000</r>
       <r>  11.0530  0.0000</r>
       <r>  11.3070  0.0000</r>
       <r>  11.6683  0.0000</r>
       <r>  11.9141  0.0000</r>
       <r>  12.5025  0.0000</r>
       <r>  12.6345  0.0000</r>
       <r>  13.5552  0.0000</r>
       <r>  14.7465  0.0000</r>
       <r>  15.0036  0.0000</r>
       <r>  15.7400  0.0000</r>
       <r>  16.6382  0.0000</r>
       <r>  17.4505  0.0000</r>
       <r>  17.7676  0.0000</r>
       <r>  18.4824  0.0000</r>
       <r>  18.5312  0.0000</r>
       <r>  18.8775  0.0000</r>
       <r>  19.3867  0.0000</r>
       <r>  20.1468  0.0000</r>
       <r>  21.1564  0.0000</r>
       <r>  21.6577  0.0000</r>
       <r>  22.5306  0.0000</r>
       <r>  22.9807  0.0000</r>
       <r>  23.1435  0.0000</r>
       <r>  23.6469  0.0000</r>
       <r>  24.4534  0.0000</r>
       <r>  24.7974  0.0000</r>
       <r>  25.0586  0.0000</r>
       <r>  25.1229  0.0000</r>
       <r>  25.8369  0.0000</r>
       <r>  26.9234  0.0000</r>
       <r>  27.3365  0.0000</r>
       <r>  28.1647  0.0000</r>
       <r>  29.1820  0.0000</r>
       <r>  29.1961  0.0000</r>
       <r>  29.5321  0.0000</r>
       <r>  30.4752  0.0000</r>
       <r>  31.0266  0.0000</r>
       <r>  31.2195  0.0000</r>
       <r>  31.3867  0.0000</r>
       <r>  31.9166  0.0000</r>
       <r>  32.0574  0.0000</r>
      </set>
      <set comment="kpoint 194">
       <r> -51.7779  1.0000</r>
       <r> -51.3951  1.0000</r>
       <r> -23.6909  1.0000</r>
       <r> -23.6907  1.0000</r>
       <r> -23.6896  1.0000</r>
       <r> -23.3152  1.0000</r>
       <r> -23.3134  1.0000</r>
       <r> -23.3133  1.0000</r>
       <r> -13.7063  1.0000</r>
       <r>  -5.0799  1.0000</r>
       <r>  -5.0663  1.0000</r>
       <r>  -5.0651  1.0000</r>
       <r>  -5.0573  1.0000</r>
       <r>  -5.0559  1.0000</r>
       <r>  -3.1579  1.0000</r>
       <r>  -2.3687  1.0000</r>
       <r>  -2.3302  1.0000</r>
       <r>   0.1989  1.0000</r>
       <r>   1.5420  1.0000</r>
       <r>   3.7624  0.0000</r>
       <r>   4.3715  0.0000</r>
       <r>   4.3748  0.0000</r>
       <r>   6.8481  0.0000</r>
       <r>   8.7028  0.0000</r>
       <r>   8.9156  0.0000</r>
       <r>   9.5552  0.0000</r>
       <r>  10.8547  0.0000</r>
       <r>  10.9618  0.0000</r>
       <r>  11.3141  0.0000</r>
       <r>  11.6459  0.0000</r>
       <r>  11.8771  0.0000</r>
       <r>  12.4724  0.0000</r>
       <r>  12.6005  0.0000</r>
       <r>  13.5057  0.0000</r>
       <r>  14.7349  0.0000</r>
       <r>  15.1099  0.0000</r>
       <r>  15.7573  0.0000</r>
       <r>  16.6042  0.0000</r>
       <r>  17.6039  0.0000</r>
       <r>  17.6750  0.0000</r>
       <r>  18.4851  0.0000</r>
       <r>  18.5269  0.0000</r>
       <r>  18.9173  0.0000</r>
       <r>  19.3662  0.0000</r>
       <r>  20.0732  0.0000</r>
       <r>  21.2237  0.0000</r>
       <r>  21.8045  0.0000</r>
       <r>  22.5896  0.0000</r>
       <r>  22.9385  0.0000</r>
       <r>  23.1787  0.0000</r>
       <r>  23.6029  0.0000</r>
       <r>  24.2389  0.0000</r>
       <r>  24.7615  0.0000</r>
       <r>  24.9812  0.0000</r>
       <r>  25.0790  0.0000</r>
       <r>  25.7228  0.0000</r>
       <r>  26.9924  0.0000</r>
       <r>  27.4674  0.0000</r>
       <r>  28.1443  0.0000</r>
       <r>  29.2451  0.0000</r>
       <r>  29.2541  0.0000</r>
       <r>  29.4088  0.0000</r>
       <r>  30.6127  0.0000</r>
       <r>  31.0657  0.0000</r>
       <r>  31.2841  0.0000</r>
       <r>  31.4778  0.0000</r>
       <r>  32.0143  0.0000</r>
       <r>  32.1974  0.0000</r>
      </set>
      <set comment="kpoint 195">
       <r> -51.7779  1.0000</r>
       <r> -51.3951  1.0000</r>
       <r> -23.6908  1.0000</r>
       <r> -23.6907  1.0000</r>
       <r> -23.6896  1.0000</r>
       <r> -23.3152  1.0000</r>
       <r> -23.3133  1.0000</r>
       <r> -23.3133  1.0000</r>
       <r> -13.7063  1.0000</r>
       <r>  -5.0799  1.0000</r>
       <r>  -5.0660  1.0000</r>
       <r>  -5.0650  1.0000</r>
       <r>  -5.0580  1.0000</r>
       <r>  -5.0559  1.0000</r>
       <r>  -3.1611  1.0000</r>
       <r>  -2.3593  1.0000</r>
       <r>  -2.3322  1.0000</r>
       <r>   0.1971  1.0000</r>
       <r>   1.5246  1.0000</r>
       <r>   3.7860  0.0000</r>
       <r>   4.3724  0.0000</r>
       <r>   4.3778  0.0000</r>
       <r>   6.8006  0.0000</r>
       <r>   8.7794  0.0000</r>
       <r>   8.9375  0.0000</r>
       <r>   9.5518  0.0000</r>
       <r>  10.8778  0.0000</r>
       <r>  10.9327  0.0000</r>
       <r>  11.3154  0.0000</r>
       <r>  11.6278  0.0000</r>
       <r>  11.8312  0.0000</r>
       <r>  12.4604  0.0000</r>
       <r>  12.5716  0.0000</r>
       <r>  13.4563  0.0000</r>
       <r>  14.7036  0.0000</r>
       <r>  15.2451  0.0000</r>
       <r>  15.7718  0.0000</r>
       <r>  16.5604  0.0000</r>
       <r>  17.5258  0.0000</r>
       <r>  17.8155  0.0000</r>
       <r>  18.4867  0.0000</r>
       <r>  18.5227  0.0000</r>
       <r>  18.9515  0.0000</r>
       <r>  19.3487  0.0000</r>
       <r>  19.9807  0.0000</r>
       <r>  21.3010  0.0000</r>
       <r>  21.9575  0.0000</r>
       <r>  22.6460  0.0000</r>
       <r>  22.9021  0.0000</r>
       <r>  23.2027  0.0000</r>
       <r>  23.5642  0.0000</r>
       <r>  24.0291  0.0000</r>
       <r>  24.7420  0.0000</r>
       <r>  24.8587  0.0000</r>
       <r>  25.0965  0.0000</r>
       <r>  25.6071  0.0000</r>
       <r>  27.0600  0.0000</r>
       <r>  27.5949  0.0000</r>
       <r>  28.1185  0.0000</r>
       <r>  29.2805  0.0000</r>
       <r>  29.3064  0.0000</r>
       <r>  29.3076  0.0000</r>
       <r>  30.7485  0.0000</r>
       <r>  31.1069  0.0000</r>
       <r>  31.2559  0.0000</r>
       <r>  31.6292  0.0000</r>
       <r>  32.1294  0.0000</r>
       <r>  32.3423  0.0000</r>
      </set>
      <set comment="kpoint 196">
       <r> -51.7779  1.0000</r>
       <r> -51.3951  1.0000</r>
       <r> -23.6907  1.0000</r>
       <r> -23.6907  1.0000</r>
       <r> -23.6896  1.0000</r>
       <r> -23.3152  1.0000</r>
       <r> -23.3133  1.0000</r>
       <r> -23.3133  1.0000</r>
       <r> -13.7063  1.0000</r>
       <r>  -5.0800  1.0000</r>
       <r>  -5.0656  1.0000</r>
       <r>  -5.0649  1.0000</r>
       <r>  -5.0585  1.0000</r>
       <r>  -5.0558  1.0000</r>
       <r>  -3.1638  1.0000</r>
       <r>  -2.3514  1.0000</r>
       <r>  -2.3338  1.0000</r>
       <r>   0.1954  1.0000</r>
       <r>   1.5102  1.0000</r>
       <r>   3.8046  0.0000</r>
       <r>   4.3750  0.0000</r>
       <r>   4.3803  0.0000</r>
       <r>   6.7603  0.0000</r>
       <r>   8.8481  0.0000</r>
       <r>   8.9559  0.0000</r>
       <r>   9.5477  0.0000</r>
       <r>  10.8037  0.0000</r>
       <r>  11.0084  0.0000</r>
       <r>  11.3140  0.0000</r>
       <r>  11.6135  0.0000</r>
       <r>  11.7766  0.0000</r>
       <r>  12.4633  0.0000</r>
       <r>  12.5480  0.0000</r>
       <r>  13.4094  0.0000</r>
       <r>  14.6718  0.0000</r>
       <r>  15.3875  0.0000</r>
       <r>  15.7835  0.0000</r>
       <r>  16.5047  0.0000</r>
       <r>  17.4287  0.0000</r>
       <r>  17.9786  0.0000</r>
       <r>  18.4877  0.0000</r>
       <r>  18.5183  0.0000</r>
       <r>  18.9798  0.0000</r>
       <r>  19.3335  0.0000</r>
       <r>  19.8797  0.0000</r>
       <r>  21.3782  0.0000</r>
       <r>  22.1146  0.0000</r>
       <r>  22.6980  0.0000</r>
       <r>  22.8718  0.0000</r>
       <r>  23.2200  0.0000</r>
       <r>  23.5267  0.0000</r>
       <r>  23.8260  0.0000</r>
       <r>  24.7005  0.0000</r>
       <r>  24.7979  0.0000</r>
       <r>  25.1109  0.0000</r>
       <r>  25.4921  0.0000</r>
       <r>  27.1229  0.0000</r>
       <r>  27.7165  0.0000</r>
       <r>  28.0899  0.0000</r>
       <r>  29.1641  0.0000</r>
       <r>  29.3522  0.0000</r>
       <r>  29.3548  0.0000</r>
       <r>  30.8802  0.0000</r>
       <r>  31.1474  0.0000</r>
       <r>  31.2194  0.0000</r>
       <r>  31.7337  0.0000</r>
       <r>  32.2050  0.0000</r>
       <r>  32.4676  0.0000</r>
      </set>
      <set comment="kpoint 197">
       <r> -51.7779  1.0000</r>
       <r> -51.3951  1.0000</r>
       <r> -23.6908  1.0000</r>
       <r> -23.6907  1.0000</r>
       <r> -23.6897  1.0000</r>
       <r> -23.3152  1.0000</r>
       <r> -23.3133  1.0000</r>
       <r> -23.3133  1.0000</r>
       <r> -13.7063  1.0000</r>
       <r>  -5.0801  1.0000</r>
       <r>  -5.0653  1.0000</r>
       <r>  -5.0648  1.0000</r>
       <r>  -5.0591  1.0000</r>
       <r>  -5.0557  1.0000</r>
       <r>  -3.1659  1.0000</r>
       <r>  -2.3451  1.0000</r>
       <r>  -2.3351  1.0000</r>
       <r>   0.1941  1.0000</r>
       <r>   1.4990  1.0000</r>
       <r>   3.8186  0.0000</r>
       <r>   4.3784  0.0000</r>
       <r>   4.3822  0.0000</r>
       <r>   6.7281  0.0000</r>
       <r>   8.9064  0.0000</r>
       <r>   8.9706  0.0000</r>
       <r>   9.5433  0.0000</r>
       <r>  10.7422  0.0000</r>
       <r>  11.0788  0.0000</r>
       <r>  11.3136  0.0000</r>
       <r>  11.6027  0.0000</r>
       <r>  11.7166  0.0000</r>
       <r>  12.4753  0.0000</r>
       <r>  12.5296  0.0000</r>
       <r>  13.3678  0.0000</r>
       <r>  14.6449  0.0000</r>
       <r>  15.5281  0.0000</r>
       <r>  15.7925  0.0000</r>
       <r>  16.4364  0.0000</r>
       <r>  17.3487  0.0000</r>
       <r>  18.1278  0.0000</r>
       <r>  18.4882  0.0000</r>
       <r>  18.5132  0.0000</r>
       <r>  19.0020  0.0000</r>
       <r>  19.3196  0.0000</r>
       <r>  19.7808  0.0000</r>
       <r>  21.4470  0.0000</r>
       <r>  22.2720  0.0000</r>
       <r>  22.7434  0.0000</r>
       <r>  22.8477  0.0000</r>
       <r>  23.2347  0.0000</r>
       <r>  23.4886  0.0000</r>
       <r>  23.6334  0.0000</r>
       <r>  24.6190  0.0000</r>
       <r>  24.8189  0.0000</r>
       <r>  25.1222  0.0000</r>
       <r>  25.3801  0.0000</r>
       <r>  27.1779  0.0000</r>
       <r>  27.8281  0.0000</r>
       <r>  28.0613  0.0000</r>
       <r>  29.0535  0.0000</r>
       <r>  29.3923  0.0000</r>
       <r>  29.3937  0.0000</r>
       <r>  31.0045  0.0000</r>
       <r>  31.1838  0.0000</r>
       <r>  31.1875  0.0000</r>
       <r>  31.7561  0.0000</r>
       <r>  32.2888  0.0000</r>
       <r>  32.7073  0.0000</r>
      </set>
      <set comment="kpoint 198">
       <r> -51.7779  1.0000</r>
       <r> -51.3951  1.0000</r>
       <r> -23.6908  1.0000</r>
       <r> -23.6907  1.0000</r>
       <r> -23.6897  1.0000</r>
       <r> -23.3153  1.0000</r>
       <r> -23.3133  1.0000</r>
       <r> -23.3133  1.0000</r>
       <r> -13.7063  1.0000</r>
       <r>  -5.0801  1.0000</r>
       <r>  -5.0649  1.0000</r>
       <r>  -5.0647  1.0000</r>
       <r>  -5.0595  1.0000</r>
       <r>  -5.0557  1.0000</r>
       <r>  -3.1674  1.0000</r>
       <r>  -2.3405  1.0000</r>
       <r>  -2.3360  1.0000</r>
       <r>   0.1930  1.0000</r>
       <r>   1.4910  1.0000</r>
       <r>   3.8283  0.0000</r>
       <r>   4.3817  0.0000</r>
       <r>   4.3836  0.0000</r>
       <r>   6.7046  0.0000</r>
       <r>   8.9514  0.0000</r>
       <r>   8.9813  0.0000</r>
       <r>   9.5392  0.0000</r>
       <r>  10.6957  0.0000</r>
       <r>  11.1379  0.0000</r>
       <r>  11.3180  0.0000</r>
       <r>  11.5950  0.0000</r>
       <r>  11.6572  0.0000</r>
       <r>  12.4900  0.0000</r>
       <r>  12.5164  0.0000</r>
       <r>  13.3347  0.0000</r>
       <r>  14.6249  0.0000</r>
       <r>  15.6579  0.0000</r>
       <r>  15.7988  0.0000</r>
       <r>  16.3595  0.0000</r>
       <r>  17.2905  0.0000</r>
       <r>  18.2540  0.0000</r>
       <r>  18.4885  0.0000</r>
       <r>  18.5062  0.0000</r>
       <r>  19.0178  0.0000</r>
       <r>  19.3067  0.0000</r>
       <r>  19.6957  0.0000</r>
       <r>  21.5010  0.0000</r>
       <r>  22.4218  0.0000</r>
       <r>  22.7795  0.0000</r>
       <r>  22.8295  0.0000</r>
       <r>  23.2489  0.0000</r>
       <r>  23.4521  0.0000</r>
       <r>  23.4593  0.0000</r>
       <r>  24.5500  0.0000</r>
       <r>  24.8687  0.0000</r>
       <r>  25.1303  0.0000</r>
       <r>  25.2744  0.0000</r>
       <r>  27.2215  0.0000</r>
       <r>  27.9227  0.0000</r>
       <r>  28.0366  0.0000</r>
       <r>  28.9592  0.0000</r>
       <r>  29.4221  0.0000</r>
       <r>  29.4228  0.0000</r>
       <r>  31.1156  0.0000</r>
       <r>  31.1620  0.0000</r>
       <r>  31.2133  0.0000</r>
       <r>  31.7223  0.0000</r>
       <r>  32.4082  0.0000</r>
       <r>  32.8226  0.0000</r>
      </set>
      <set comment="kpoint 199">
       <r> -51.7780  1.0000</r>
       <r> -51.3951  1.0000</r>
       <r> -23.6908  1.0000</r>
       <r> -23.6908  1.0000</r>
       <r> -23.6897  1.0000</r>
       <r> -23.3153  1.0000</r>
       <r> -23.3134  1.0000</r>
       <r> -23.3134  1.0000</r>
       <r> -13.7063  1.0000</r>
       <r>  -5.0802  1.0000</r>
       <r>  -5.0647  1.0000</r>
       <r>  -5.0647  1.0000</r>
       <r>  -5.0598  1.0000</r>
       <r>  -5.0557  1.0000</r>
       <r>  -3.1683  1.0000</r>
       <r>  -2.3377  1.0000</r>
       <r>  -2.3366  1.0000</r>
       <r>   0.1923  1.0000</r>
       <r>   1.4862  1.0000</r>
       <r>   3.8339  0.0000</r>
       <r>   4.3840  0.0000</r>
       <r>   4.3845  0.0000</r>
       <r>   6.6903  0.0000</r>
       <r>   8.9801  0.0000</r>
       <r>   8.9877  0.0000</r>
       <r>   9.5361  0.0000</r>
       <r>  10.6668  0.0000</r>
       <r>  11.1767  0.0000</r>
       <r>  11.3287  0.0000</r>
       <r>  11.5905  0.0000</r>
       <r>  11.6090  0.0000</r>
       <r>  12.5016  0.0000</r>
       <r>  12.5085  0.0000</r>
       <r>  13.3132  0.0000</r>
       <r>  14.6126  0.0000</r>
       <r>  15.7609  0.0000</r>
       <r>  15.8026  0.0000</r>
       <r>  16.2884  0.0000</r>
       <r>  17.2555  0.0000</r>
       <r>  18.3454  0.0000</r>
       <r>  18.4887  0.0000</r>
       <r>  18.4961  0.0000</r>
       <r>  19.0274  0.0000</r>
       <r>  19.2960  0.0000</r>
       <r>  19.6375  0.0000</r>
       <r>  21.5354  0.0000</r>
       <r>  22.5448  0.0000</r>
       <r>  22.8031  0.0000</r>
       <r>  22.8169  0.0000</r>
       <r>  23.2617  0.0000</r>
       <r>  23.3235  0.0000</r>
       <r>  23.4231  0.0000</r>
       <r>  24.5059  0.0000</r>
       <r>  24.9286  0.0000</r>
       <r>  25.1352  0.0000</r>
       <r>  25.1828  0.0000</r>
       <r>  27.2498  0.0000</r>
       <r>  27.9890  0.0000</r>
       <r>  28.0196  0.0000</r>
       <r>  28.8930  0.0000</r>
       <r>  29.4405  0.0000</r>
       <r>  29.4407  0.0000</r>
       <r>  31.1447  0.0000</r>
       <r>  31.2031  0.0000</r>
       <r>  31.2324  0.0000</r>
       <r>  31.6734  0.0000</r>
       <r>  32.4078  0.0000</r>
       <r>  32.9137  0.0000</r>
      </set>
      <set comment="kpoint 200">
       <r> -51.7780  1.0000</r>
       <r> -51.3951  1.0000</r>
       <r> -23.6909  1.0000</r>
       <r> -23.6908  1.0000</r>
       <r> -23.6898  1.0000</r>
       <r> -23.3153  1.0000</r>
       <r> -23.3134  1.0000</r>
       <r> -23.3134  1.0000</r>
       <r> -13.7063  1.0000</r>
       <r>  -5.0802  1.0000</r>
       <r>  -5.0646  1.0000</r>
       <r>  -5.0646  1.0000</r>
       <r>  -5.0599  1.0000</r>
       <r>  -5.0557  1.0000</r>
       <r>  -3.1686  1.0000</r>
       <r>  -2.3368  1.0000</r>
       <r>  -2.3368  1.0000</r>
       <r>   0.1921  1.0000</r>
       <r>   1.4845  1.0000</r>
       <r>   3.8357  0.0000</r>
       <r>   4.3848  0.0000</r>
       <r>   4.3848  0.0000</r>
       <r>   6.6855  0.0000</r>
       <r>   8.9899  0.0000</r>
       <r>   8.9899  0.0000</r>
       <r>   9.5350  0.0000</r>
       <r>  10.6569  0.0000</r>
       <r>  11.1897  0.0000</r>
       <r>  11.3359  0.0000</r>
       <r>  11.5890  0.0000</r>
       <r>  11.5890  0.0000</r>
       <r>  12.5059  0.0000</r>
       <r>  12.5060  0.0000</r>
       <r>  13.3057  0.0000</r>
       <r>  14.6085  0.0000</r>
       <r>  15.8039  0.0000</r>
       <r>  15.8039  0.0000</r>
       <r>  16.2560  0.0000</r>
       <r>  17.2439  0.0000</r>
       <r>  18.3821  0.0000</r>
       <r>  18.4887  0.0000</r>
       <r>  18.4887  0.0000</r>
       <r>  19.0306  0.0000</r>
       <r>  19.2914  0.0000</r>
       <r>  19.6168  0.0000</r>
       <r>  21.5473  0.0000</r>
       <r>  22.5978  0.0000</r>
       <r>  22.8114  0.0000</r>
       <r>  22.8114  0.0000</r>
       <r>  23.2674  0.0000</r>
       <r>  23.2675  0.0000</r>
       <r>  23.4115  0.0000</r>
       <r>  24.4908  0.0000</r>
       <r>  24.9644  0.0000</r>
       <r>  25.1368  0.0000</r>
       <r>  25.1368  0.0000</r>
       <r>  27.2596  0.0000</r>
       <r>  28.0134  0.0000</r>
       <r>  28.0135  0.0000</r>
       <r>  28.8686  0.0000</r>
       <r>  29.4468  0.0000</r>
       <r>  29.4468  0.0000</r>
       <r>  31.1395  0.0000</r>
       <r>  31.2381  0.0000</r>
       <r>  31.2382  0.0000</r>
       <r>  31.6489  0.0000</r>
       <r>  32.4757  0.0000</r>
       <r>  32.8859  0.0000</r>
      </set>
     </set>
    </set>
   </array>
  </eigenvalues>
 </calculation>
 <structure name="finalpos" >
  <crystal>
   <varray name="basis" >
    <v>       0.00000000       3.76922363       3.76922363 </v>
    <v>       3.76922363       0.00000000       3.76922363 </v>
    <v>       3.76922363       3.76922363       0.00000000 </v>
   </varray>
   <i name="volume">    107.09907318</i>
   <varray name="rec_basis" >
    <v>      -0.13265331       0.13265331       0.13265331 </v>
    <v>       0.13265331      -0.13265331       0.13265331 </v>
    <v>       0.13265331       0.13265331      -0.13265331 </v>
   </varray>
  </crystal>
  <varray name="positions" >
   <v>       0.50000000       0.50000000       0.50000000 </v>
   <v>       0.00000000       0.00000000       0.00000000 </v>
   <v>       0.75000000       0.75000000       0.75000000 </v>
   <v>       0.25000000       0.25000000       0.25000000 </v>
  </varray>
 </structure>
</modeling>
