------------------------------------------------------------
          Invoking FHI-aims ...

          When using FHI-aims, please cite the following reference:

            Volker Blum, Ralf Gehrke, Felix Hanke, Paula Havu,
            Ville Havu, Xinguo Ren, Karsten Reuter, and Matthias Scheffler,
            'Ab Initio Molecular Simulations with Numeric Atom-Centered Orbitals',
            Computer Physics Communications 180, 2175-2196 (2009)

          In addition, many other developments in FHI-aims are likely important for
          your particular application. A partial list of references is given at the end of
          this file. Thank you for giving credit to the authors of these developments.

          For any questions about FHI-aims, please visit our slack channel at

            https://fhi-aims.slack.com

          and our main development and support site at

            https://aims-git.rz-berlin.mpg.de .

          The latter site, in particular, has a wiki to collect information, as well
          as an issue tracker to log discussions, suggest improvements, and report issues
          or bugs. https://aims-git.rz-berlin.mpg.de is also the main development site
          of the project and all new and updated code versions can be obtained there.
          Please send an email to aims-coordinators@fhi-berlin.mpg.de and we will add
          you to these sites. They are for you and everyone is welcome there.

------------------------------------------------------------



  Date     :  20210909, Time     :  124826.656
  Time zero on CPU 1             :   0.895117700000000E+01  s.
  Internal wall clock time zero  :           400423706.656  s.

  FHI-aims created a unique identifier for this run for later identification
  aims_uuid : DBB66B47-EE3A-4FA1-A458-12CFEBAE6F11

  Build configuration of the current instance of FHI-aims
  -------------------------------------------------------
  FHI-aims version      : 210716.1
  Commit number         : GITDIR-NOTFOUND
  CMake host system     : Linux-3.10.0-1160.31.1.el7.x86_64
  CMake version         : 3.18.4
  Fortran compiler      : /appl/spack/v014/install-tree/gcc-9.3.0/openmpi-4.0.3-ddb3ro/bin/mpif90 (GNU) version 9.3.0
  Fortran compiler flags: -O3 -march=native -ffree-line-length-none
  C compiler            : /appl/spack/v014/install-tree/gcc-4.8.5/gcc-9.3.0-3cdxud/bin/gcc (GNU) version 9.3.0
  C compiler flags      : -O3 -march=native -DNDEBUG -funroll-loops
  Using MPI
  Using ScaLAPACK
  Using LibXC
  Using i-PI
  Using RLSY
  Linking against: /appl/spack/v014/install-tree/gcc-9.3.0/openblas-0.3.10-ox6ff3/lib/libopenblas.so
                   /appl/spack/v014/install-tree/gcc-9.3.0/netlib-scalapack-2.1.0-xeslcn/lib/libscalapack.so

  Using     1280 parallel tasks.
  Task        0 on host c4311.mahti.csc.fi reporting.
  Task        1 on host c4311.mahti.csc.fi reporting.
  Task        2 on host c4311.mahti.csc.fi reporting.
  Task        3 on host c4311.mahti.csc.fi reporting.
  Task        4 on host c4311.mahti.csc.fi reporting.
  Task        5 on host c4311.mahti.csc.fi reporting.
  Task        6 on host c4311.mahti.csc.fi reporting.
  Task        7 on host c4311.mahti.csc.fi reporting.
  Task        8 on host c4311.mahti.csc.fi reporting.
  Task        9 on host c4311.mahti.csc.fi reporting.
  Task       10 on host c4311.mahti.csc.fi reporting.
  Task       11 on host c4311.mahti.csc.fi reporting.
  Task       12 on host c4311.mahti.csc.fi reporting.
  Task       13 on host c4311.mahti.csc.fi reporting.
  Task       14 on host c4311.mahti.csc.fi reporting.
  Task       15 on host c4311.mahti.csc.fi reporting.
  Task       16 on host c4311.mahti.csc.fi reporting.
  Task       17 on host c4311.mahti.csc.fi reporting.
  Task       18 on host c4311.mahti.csc.fi reporting.
  Task       19 on host c4311.mahti.csc.fi reporting.
  Task       20 on host c4311.mahti.csc.fi reporting.
  Task       21 on host c4311.mahti.csc.fi reporting.
  Task       22 on host c4311.mahti.csc.fi reporting.
  Task       23 on host c4311.mahti.csc.fi reporting.
  Task       24 on host c4311.mahti.csc.fi reporting.
  Task       25 on host c4311.mahti.csc.fi reporting.
  Task       26 on host c4311.mahti.csc.fi reporting.
  Task       27 on host c4311.mahti.csc.fi reporting.
  Task       28 on host c4311.mahti.csc.fi reporting.
  Task       29 on host c4311.mahti.csc.fi reporting.
  Task       30 on host c4311.mahti.csc.fi reporting.
  Task       31 on host c4311.mahti.csc.fi reporting.
  Task       32 on host c4311.mahti.csc.fi reporting.
  Task       33 on host c4311.mahti.csc.fi reporting.
  Task       34 on host c4311.mahti.csc.fi reporting.
  Task       35 on host c4311.mahti.csc.fi reporting.
  Task       36 on host c4311.mahti.csc.fi reporting.
  Task       37 on host c4311.mahti.csc.fi reporting.
  Task       38 on host c4311.mahti.csc.fi reporting.
  Task       39 on host c4311.mahti.csc.fi reporting.
  Task       40 on host c4311.mahti.csc.fi reporting.
  Task       41 on host c4311.mahti.csc.fi reporting.
  Task       42 on host c4311.mahti.csc.fi reporting.
  Task       43 on host c4311.mahti.csc.fi reporting.
  Task       44 on host c4311.mahti.csc.fi reporting.
  Task       45 on host c4311.mahti.csc.fi reporting.
  Task       46 on host c4311.mahti.csc.fi reporting.
  Task       47 on host c4311.mahti.csc.fi reporting.
  Task       48 on host c4311.mahti.csc.fi reporting.
  Task       49 on host c4311.mahti.csc.fi reporting.
  Task       50 on host c4311.mahti.csc.fi reporting.
  Task       51 on host c4311.mahti.csc.fi reporting.
  Task       52 on host c4311.mahti.csc.fi reporting.
  Task       53 on host c4311.mahti.csc.fi reporting.
  Task       54 on host c4311.mahti.csc.fi reporting.
  Task       55 on host c4311.mahti.csc.fi reporting.
  Task       56 on host c4311.mahti.csc.fi reporting.
  Task       57 on host c4311.mahti.csc.fi reporting.
  Task       58 on host c4311.mahti.csc.fi reporting.
  Task       59 on host c4311.mahti.csc.fi reporting.
  Task       60 on host c4311.mahti.csc.fi reporting.
  Task       61 on host c4311.mahti.csc.fi reporting.
  Task       62 on host c4311.mahti.csc.fi reporting.
  Task       63 on host c4311.mahti.csc.fi reporting.
  Task       64 on host c4311.mahti.csc.fi reporting.
  Task       65 on host c4311.mahti.csc.fi reporting.
  Task       66 on host c4311.mahti.csc.fi reporting.
  Task       67 on host c4311.mahti.csc.fi reporting.
  Task       68 on host c4311.mahti.csc.fi reporting.
  Task       69 on host c4311.mahti.csc.fi reporting.
  Task       70 on host c4311.mahti.csc.fi reporting.
  Task       71 on host c4311.mahti.csc.fi reporting.
  Task       72 on host c4311.mahti.csc.fi reporting.
  Task       73 on host c4311.mahti.csc.fi reporting.
  Task       74 on host c4311.mahti.csc.fi reporting.
  Task       75 on host c4311.mahti.csc.fi reporting.
  Task       76 on host c4311.mahti.csc.fi reporting.
  Task       77 on host c4311.mahti.csc.fi reporting.
  Task       78 on host c4311.mahti.csc.fi reporting.
  Task       79 on host c4311.mahti.csc.fi reporting.
  Task       80 on host c4311.mahti.csc.fi reporting.
  Task       81 on host c4311.mahti.csc.fi reporting.
  Task       82 on host c4311.mahti.csc.fi reporting.
  Task       83 on host c4311.mahti.csc.fi reporting.
  Task       84 on host c4311.mahti.csc.fi reporting.
  Task       85 on host c4311.mahti.csc.fi reporting.
  Task       86 on host c4311.mahti.csc.fi reporting.
  Task       87 on host c4311.mahti.csc.fi reporting.
  Task       88 on host c4311.mahti.csc.fi reporting.
  Task       89 on host c4311.mahti.csc.fi reporting.
  Task       90 on host c4311.mahti.csc.fi reporting.
  Task       91 on host c4311.mahti.csc.fi reporting.
  Task       92 on host c4311.mahti.csc.fi reporting.
  Task       93 on host c4311.mahti.csc.fi reporting.
  Task       94 on host c4311.mahti.csc.fi reporting.
  Task       95 on host c4311.mahti.csc.fi reporting.
  Task       96 on host c4311.mahti.csc.fi reporting.
  Task       97 on host c4311.mahti.csc.fi reporting.
  Task       98 on host c4311.mahti.csc.fi reporting.
  Task       99 on host c4311.mahti.csc.fi reporting.
  Task      100 on host c4311.mahti.csc.fi reporting.
  Task      101 on host c4311.mahti.csc.fi reporting.
  Task      102 on host c4311.mahti.csc.fi reporting.
  Task      103 on host c4311.mahti.csc.fi reporting.
  Task      104 on host c4311.mahti.csc.fi reporting.
  Task      105 on host c4311.mahti.csc.fi reporting.
  Task      106 on host c4311.mahti.csc.fi reporting.
  Task      107 on host c4311.mahti.csc.fi reporting.
  Task      108 on host c4311.mahti.csc.fi reporting.
  Task      109 on host c4311.mahti.csc.fi reporting.
  Task      110 on host c4311.mahti.csc.fi reporting.
  Task      111 on host c4311.mahti.csc.fi reporting.
  Task      112 on host c4311.mahti.csc.fi reporting.
  Task      113 on host c4311.mahti.csc.fi reporting.
  Task      114 on host c4311.mahti.csc.fi reporting.
  Task      115 on host c4311.mahti.csc.fi reporting.
  Task      116 on host c4311.mahti.csc.fi reporting.
  Task      117 on host c4311.mahti.csc.fi reporting.
  Task      118 on host c4311.mahti.csc.fi reporting.
  Task      119 on host c4311.mahti.csc.fi reporting.
  Task      120 on host c4311.mahti.csc.fi reporting.
  Task      121 on host c4311.mahti.csc.fi reporting.
  Task      122 on host c4311.mahti.csc.fi reporting.
  Task      123 on host c4311.mahti.csc.fi reporting.
  Task      124 on host c4311.mahti.csc.fi reporting.
  Task      125 on host c4311.mahti.csc.fi reporting.
  Task      126 on host c4311.mahti.csc.fi reporting.
  Task      127 on host c4311.mahti.csc.fi reporting.
  Task      128 on host c4312.mahti.csc.fi reporting.
  Task      129 on host c4312.mahti.csc.fi reporting.
  Task      130 on host c4312.mahti.csc.fi reporting.
  Task      131 on host c4312.mahti.csc.fi reporting.
  Task      132 on host c4312.mahti.csc.fi reporting.
  Task      133 on host c4312.mahti.csc.fi reporting.
  Task      134 on host c4312.mahti.csc.fi reporting.
  Task      135 on host c4312.mahti.csc.fi reporting.
  Task      136 on host c4312.mahti.csc.fi reporting.
  Task      137 on host c4312.mahti.csc.fi reporting.
  Task      138 on host c4312.mahti.csc.fi reporting.
  Task      139 on host c4312.mahti.csc.fi reporting.
  Task      140 on host c4312.mahti.csc.fi reporting.
  Task      141 on host c4312.mahti.csc.fi reporting.
  Task      142 on host c4312.mahti.csc.fi reporting.
  Task      143 on host c4312.mahti.csc.fi reporting.
  Task      144 on host c4312.mahti.csc.fi reporting.
  Task      145 on host c4312.mahti.csc.fi reporting.
  Task      146 on host c4312.mahti.csc.fi reporting.
  Task      147 on host c4312.mahti.csc.fi reporting.
  Task      148 on host c4312.mahti.csc.fi reporting.
  Task      149 on host c4312.mahti.csc.fi reporting.
  Task      150 on host c4312.mahti.csc.fi reporting.
  Task      151 on host c4312.mahti.csc.fi reporting.
  Task      152 on host c4312.mahti.csc.fi reporting.
  Task      153 on host c4312.mahti.csc.fi reporting.
  Task      154 on host c4312.mahti.csc.fi reporting.
  Task      155 on host c4312.mahti.csc.fi reporting.
  Task      156 on host c4312.mahti.csc.fi reporting.
  Task      157 on host c4312.mahti.csc.fi reporting.
  Task      158 on host c4312.mahti.csc.fi reporting.
  Task      159 on host c4312.mahti.csc.fi reporting.
  Task      160 on host c4312.mahti.csc.fi reporting.
  Task      161 on host c4312.mahti.csc.fi reporting.
  Task      162 on host c4312.mahti.csc.fi reporting.
  Task      163 on host c4312.mahti.csc.fi reporting.
  Task      164 on host c4312.mahti.csc.fi reporting.
  Task      165 on host c4312.mahti.csc.fi reporting.
  Task      166 on host c4312.mahti.csc.fi reporting.
  Task      167 on host c4312.mahti.csc.fi reporting.
  Task      168 on host c4312.mahti.csc.fi reporting.
  Task      169 on host c4312.mahti.csc.fi reporting.
  Task      170 on host c4312.mahti.csc.fi reporting.
  Task      171 on host c4312.mahti.csc.fi reporting.
  Task      172 on host c4312.mahti.csc.fi reporting.
  Task      173 on host c4312.mahti.csc.fi reporting.
  Task      174 on host c4312.mahti.csc.fi reporting.
  Task      175 on host c4312.mahti.csc.fi reporting.
  Task      176 on host c4312.mahti.csc.fi reporting.
  Task      177 on host c4312.mahti.csc.fi reporting.
  Task      178 on host c4312.mahti.csc.fi reporting.
  Task      179 on host c4312.mahti.csc.fi reporting.
  Task      180 on host c4312.mahti.csc.fi reporting.
  Task      181 on host c4312.mahti.csc.fi reporting.
  Task      182 on host c4312.mahti.csc.fi reporting.
  Task      183 on host c4312.mahti.csc.fi reporting.
  Task      184 on host c4312.mahti.csc.fi reporting.
  Task      185 on host c4312.mahti.csc.fi reporting.
  Task      186 on host c4312.mahti.csc.fi reporting.
  Task      187 on host c4312.mahti.csc.fi reporting.
  Task      188 on host c4312.mahti.csc.fi reporting.
  Task      189 on host c4312.mahti.csc.fi reporting.
  Task      190 on host c4312.mahti.csc.fi reporting.
  Task      191 on host c4312.mahti.csc.fi reporting.
  Task      192 on host c4312.mahti.csc.fi reporting.
  Task      193 on host c4312.mahti.csc.fi reporting.
  Task      194 on host c4312.mahti.csc.fi reporting.
  Task      195 on host c4312.mahti.csc.fi reporting.
  Task      196 on host c4312.mahti.csc.fi reporting.
  Task      197 on host c4312.mahti.csc.fi reporting.
  Task      198 on host c4312.mahti.csc.fi reporting.
  Task      199 on host c4312.mahti.csc.fi reporting.
  Task      200 on host c4312.mahti.csc.fi reporting.
  Task      201 on host c4312.mahti.csc.fi reporting.
  Task      202 on host c4312.mahti.csc.fi reporting.
  Task      203 on host c4312.mahti.csc.fi reporting.
  Task      204 on host c4312.mahti.csc.fi reporting.
  Task      205 on host c4312.mahti.csc.fi reporting.
  Task      206 on host c4312.mahti.csc.fi reporting.
  Task      207 on host c4312.mahti.csc.fi reporting.
  Task      208 on host c4312.mahti.csc.fi reporting.
  Task      209 on host c4312.mahti.csc.fi reporting.
  Task      210 on host c4312.mahti.csc.fi reporting.
  Task      211 on host c4312.mahti.csc.fi reporting.
  Task      212 on host c4312.mahti.csc.fi reporting.
  Task      213 on host c4312.mahti.csc.fi reporting.
  Task      214 on host c4312.mahti.csc.fi reporting.
  Task      215 on host c4312.mahti.csc.fi reporting.
  Task      216 on host c4312.mahti.csc.fi reporting.
  Task      217 on host c4312.mahti.csc.fi reporting.
  Task      218 on host c4312.mahti.csc.fi reporting.
  Task      219 on host c4312.mahti.csc.fi reporting.
  Task      220 on host c4312.mahti.csc.fi reporting.
  Task      221 on host c4312.mahti.csc.fi reporting.
  Task      222 on host c4312.mahti.csc.fi reporting.
  Task      223 on host c4312.mahti.csc.fi reporting.
  Task      224 on host c4312.mahti.csc.fi reporting.
  Task      225 on host c4312.mahti.csc.fi reporting.
  Task      226 on host c4312.mahti.csc.fi reporting.
  Task      227 on host c4312.mahti.csc.fi reporting.
  Task      228 on host c4312.mahti.csc.fi reporting.
  Task      229 on host c4312.mahti.csc.fi reporting.
  Task      230 on host c4312.mahti.csc.fi reporting.
  Task      231 on host c4312.mahti.csc.fi reporting.
  Task      232 on host c4312.mahti.csc.fi reporting.
  Task      233 on host c4312.mahti.csc.fi reporting.
  Task      234 on host c4312.mahti.csc.fi reporting.
  Task      235 on host c4312.mahti.csc.fi reporting.
  Task      236 on host c4312.mahti.csc.fi reporting.
  Task      237 on host c4312.mahti.csc.fi reporting.
  Task      238 on host c4312.mahti.csc.fi reporting.
  Task      239 on host c4312.mahti.csc.fi reporting.
  Task      240 on host c4312.mahti.csc.fi reporting.
  Task      241 on host c4312.mahti.csc.fi reporting.
  Task      242 on host c4312.mahti.csc.fi reporting.
  Task      243 on host c4312.mahti.csc.fi reporting.
  Task      244 on host c4312.mahti.csc.fi reporting.
  Task      245 on host c4312.mahti.csc.fi reporting.
  Task      246 on host c4312.mahti.csc.fi reporting.
  Task      247 on host c4312.mahti.csc.fi reporting.
  Task      248 on host c4312.mahti.csc.fi reporting.
  Task      249 on host c4312.mahti.csc.fi reporting.
  Task      250 on host c4312.mahti.csc.fi reporting.
  Task      251 on host c4312.mahti.csc.fi reporting.
  Task      252 on host c4312.mahti.csc.fi reporting.
  Task      253 on host c4312.mahti.csc.fi reporting.
  Task      254 on host c4312.mahti.csc.fi reporting.
  Task      255 on host c4312.mahti.csc.fi reporting.
  Task      256 on host c4313.mahti.csc.fi reporting.
  Task      257 on host c4313.mahti.csc.fi reporting.
  Task      258 on host c4313.mahti.csc.fi reporting.
  Task      259 on host c4313.mahti.csc.fi reporting.
  Task      260 on host c4313.mahti.csc.fi reporting.
  Task      261 on host c4313.mahti.csc.fi reporting.
  Task      262 on host c4313.mahti.csc.fi reporting.
  Task      263 on host c4313.mahti.csc.fi reporting.
  Task      264 on host c4313.mahti.csc.fi reporting.
  Task      265 on host c4313.mahti.csc.fi reporting.
  Task      266 on host c4313.mahti.csc.fi reporting.
  Task      267 on host c4313.mahti.csc.fi reporting.
  Task      268 on host c4313.mahti.csc.fi reporting.
  Task      269 on host c4313.mahti.csc.fi reporting.
  Task      270 on host c4313.mahti.csc.fi reporting.
  Task      271 on host c4313.mahti.csc.fi reporting.
  Task      272 on host c4313.mahti.csc.fi reporting.
  Task      273 on host c4313.mahti.csc.fi reporting.
  Task      274 on host c4313.mahti.csc.fi reporting.
  Task      275 on host c4313.mahti.csc.fi reporting.
  Task      276 on host c4313.mahti.csc.fi reporting.
  Task      277 on host c4313.mahti.csc.fi reporting.
  Task      278 on host c4313.mahti.csc.fi reporting.
  Task      279 on host c4313.mahti.csc.fi reporting.
  Task      280 on host c4313.mahti.csc.fi reporting.
  Task      281 on host c4313.mahti.csc.fi reporting.
  Task      282 on host c4313.mahti.csc.fi reporting.
  Task      283 on host c4313.mahti.csc.fi reporting.
  Task      284 on host c4313.mahti.csc.fi reporting.
  Task      285 on host c4313.mahti.csc.fi reporting.
  Task      286 on host c4313.mahti.csc.fi reporting.
  Task      287 on host c4313.mahti.csc.fi reporting.
  Task      288 on host c4313.mahti.csc.fi reporting.
  Task      289 on host c4313.mahti.csc.fi reporting.
  Task      290 on host c4313.mahti.csc.fi reporting.
  Task      291 on host c4313.mahti.csc.fi reporting.
  Task      292 on host c4313.mahti.csc.fi reporting.
  Task      293 on host c4313.mahti.csc.fi reporting.
  Task      294 on host c4313.mahti.csc.fi reporting.
  Task      295 on host c4313.mahti.csc.fi reporting.
  Task      296 on host c4313.mahti.csc.fi reporting.
  Task      297 on host c4313.mahti.csc.fi reporting.
  Task      298 on host c4313.mahti.csc.fi reporting.
  Task      299 on host c4313.mahti.csc.fi reporting.
  Task      300 on host c4313.mahti.csc.fi reporting.
  Task      301 on host c4313.mahti.csc.fi reporting.
  Task      302 on host c4313.mahti.csc.fi reporting.
  Task      303 on host c4313.mahti.csc.fi reporting.
  Task      304 on host c4313.mahti.csc.fi reporting.
  Task      305 on host c4313.mahti.csc.fi reporting.
  Task      306 on host c4313.mahti.csc.fi reporting.
  Task      307 on host c4313.mahti.csc.fi reporting.
  Task      308 on host c4313.mahti.csc.fi reporting.
  Task      309 on host c4313.mahti.csc.fi reporting.
  Task      310 on host c4313.mahti.csc.fi reporting.
  Task      311 on host c4313.mahti.csc.fi reporting.
  Task      312 on host c4313.mahti.csc.fi reporting.
  Task      313 on host c4313.mahti.csc.fi reporting.
  Task      314 on host c4313.mahti.csc.fi reporting.
  Task      315 on host c4313.mahti.csc.fi reporting.
  Task      316 on host c4313.mahti.csc.fi reporting.
  Task      317 on host c4313.mahti.csc.fi reporting.
  Task      318 on host c4313.mahti.csc.fi reporting.
  Task      319 on host c4313.mahti.csc.fi reporting.
  Task      320 on host c4313.mahti.csc.fi reporting.
  Task      321 on host c4313.mahti.csc.fi reporting.
  Task      322 on host c4313.mahti.csc.fi reporting.
  Task      323 on host c4313.mahti.csc.fi reporting.
  Task      324 on host c4313.mahti.csc.fi reporting.
  Task      325 on host c4313.mahti.csc.fi reporting.
  Task      326 on host c4313.mahti.csc.fi reporting.
  Task      327 on host c4313.mahti.csc.fi reporting.
  Task      328 on host c4313.mahti.csc.fi reporting.
  Task      329 on host c4313.mahti.csc.fi reporting.
  Task      330 on host c4313.mahti.csc.fi reporting.
  Task      331 on host c4313.mahti.csc.fi reporting.
  Task      332 on host c4313.mahti.csc.fi reporting.
  Task      333 on host c4313.mahti.csc.fi reporting.
  Task      334 on host c4313.mahti.csc.fi reporting.
  Task      335 on host c4313.mahti.csc.fi reporting.
  Task      336 on host c4313.mahti.csc.fi reporting.
  Task      337 on host c4313.mahti.csc.fi reporting.
  Task      338 on host c4313.mahti.csc.fi reporting.
  Task      339 on host c4313.mahti.csc.fi reporting.
  Task      340 on host c4313.mahti.csc.fi reporting.
  Task      341 on host c4313.mahti.csc.fi reporting.
  Task      342 on host c4313.mahti.csc.fi reporting.
  Task      343 on host c4313.mahti.csc.fi reporting.
  Task      344 on host c4313.mahti.csc.fi reporting.
  Task      345 on host c4313.mahti.csc.fi reporting.
  Task      346 on host c4313.mahti.csc.fi reporting.
  Task      347 on host c4313.mahti.csc.fi reporting.
  Task      348 on host c4313.mahti.csc.fi reporting.
  Task      349 on host c4313.mahti.csc.fi reporting.
  Task      350 on host c4313.mahti.csc.fi reporting.
  Task      351 on host c4313.mahti.csc.fi reporting.
  Task      352 on host c4313.mahti.csc.fi reporting.
  Task      353 on host c4313.mahti.csc.fi reporting.
  Task      354 on host c4313.mahti.csc.fi reporting.
  Task      355 on host c4313.mahti.csc.fi reporting.
  Task      356 on host c4313.mahti.csc.fi reporting.
  Task      357 on host c4313.mahti.csc.fi reporting.
  Task      358 on host c4313.mahti.csc.fi reporting.
  Task      359 on host c4313.mahti.csc.fi reporting.
  Task      360 on host c4313.mahti.csc.fi reporting.
  Task      361 on host c4313.mahti.csc.fi reporting.
  Task      362 on host c4313.mahti.csc.fi reporting.
  Task      363 on host c4313.mahti.csc.fi reporting.
  Task      364 on host c4313.mahti.csc.fi reporting.
  Task      365 on host c4313.mahti.csc.fi reporting.
  Task      366 on host c4313.mahti.csc.fi reporting.
  Task      367 on host c4313.mahti.csc.fi reporting.
  Task      368 on host c4313.mahti.csc.fi reporting.
  Task      369 on host c4313.mahti.csc.fi reporting.
  Task      370 on host c4313.mahti.csc.fi reporting.
  Task      371 on host c4313.mahti.csc.fi reporting.
  Task      372 on host c4313.mahti.csc.fi reporting.
  Task      373 on host c4313.mahti.csc.fi reporting.
  Task      374 on host c4313.mahti.csc.fi reporting.
  Task      375 on host c4313.mahti.csc.fi reporting.
  Task      376 on host c4313.mahti.csc.fi reporting.
  Task      377 on host c4313.mahti.csc.fi reporting.
  Task      378 on host c4313.mahti.csc.fi reporting.
  Task      379 on host c4313.mahti.csc.fi reporting.
  Task      380 on host c4313.mahti.csc.fi reporting.
  Task      381 on host c4313.mahti.csc.fi reporting.
  Task      382 on host c4313.mahti.csc.fi reporting.
  Task      383 on host c4313.mahti.csc.fi reporting.
  Task      384 on host c4316.mahti.csc.fi reporting.
  Task      385 on host c4316.mahti.csc.fi reporting.
  Task      386 on host c4316.mahti.csc.fi reporting.
  Task      387 on host c4316.mahti.csc.fi reporting.
  Task      388 on host c4316.mahti.csc.fi reporting.
  Task      389 on host c4316.mahti.csc.fi reporting.
  Task      390 on host c4316.mahti.csc.fi reporting.
  Task      391 on host c4316.mahti.csc.fi reporting.
  Task      392 on host c4316.mahti.csc.fi reporting.
  Task      393 on host c4316.mahti.csc.fi reporting.
  Task      394 on host c4316.mahti.csc.fi reporting.
  Task      395 on host c4316.mahti.csc.fi reporting.
  Task      396 on host c4316.mahti.csc.fi reporting.
  Task      397 on host c4316.mahti.csc.fi reporting.
  Task      398 on host c4316.mahti.csc.fi reporting.
  Task      399 on host c4316.mahti.csc.fi reporting.
  Task      400 on host c4316.mahti.csc.fi reporting.
  Task      401 on host c4316.mahti.csc.fi reporting.
  Task      402 on host c4316.mahti.csc.fi reporting.
  Task      403 on host c4316.mahti.csc.fi reporting.
  Task      404 on host c4316.mahti.csc.fi reporting.
  Task      405 on host c4316.mahti.csc.fi reporting.
  Task      406 on host c4316.mahti.csc.fi reporting.
  Task      407 on host c4316.mahti.csc.fi reporting.
  Task      408 on host c4316.mahti.csc.fi reporting.
  Task      409 on host c4316.mahti.csc.fi reporting.
  Task      410 on host c4316.mahti.csc.fi reporting.
  Task      411 on host c4316.mahti.csc.fi reporting.
  Task      412 on host c4316.mahti.csc.fi reporting.
  Task      413 on host c4316.mahti.csc.fi reporting.
  Task      414 on host c4316.mahti.csc.fi reporting.
  Task      415 on host c4316.mahti.csc.fi reporting.
  Task      416 on host c4316.mahti.csc.fi reporting.
  Task      417 on host c4316.mahti.csc.fi reporting.
  Task      418 on host c4316.mahti.csc.fi reporting.
  Task      419 on host c4316.mahti.csc.fi reporting.
  Task      420 on host c4316.mahti.csc.fi reporting.
  Task      421 on host c4316.mahti.csc.fi reporting.
  Task      422 on host c4316.mahti.csc.fi reporting.
  Task      423 on host c4316.mahti.csc.fi reporting.
  Task      424 on host c4316.mahti.csc.fi reporting.
  Task      425 on host c4316.mahti.csc.fi reporting.
  Task      426 on host c4316.mahti.csc.fi reporting.
  Task      427 on host c4316.mahti.csc.fi reporting.
  Task      428 on host c4316.mahti.csc.fi reporting.
  Task      429 on host c4316.mahti.csc.fi reporting.
  Task      430 on host c4316.mahti.csc.fi reporting.
  Task      431 on host c4316.mahti.csc.fi reporting.
  Task      432 on host c4316.mahti.csc.fi reporting.
  Task      433 on host c4316.mahti.csc.fi reporting.
  Task      434 on host c4316.mahti.csc.fi reporting.
  Task      435 on host c4316.mahti.csc.fi reporting.
  Task      436 on host c4316.mahti.csc.fi reporting.
  Task      437 on host c4316.mahti.csc.fi reporting.
  Task      438 on host c4316.mahti.csc.fi reporting.
  Task      439 on host c4316.mahti.csc.fi reporting.
  Task      440 on host c4316.mahti.csc.fi reporting.
  Task      441 on host c4316.mahti.csc.fi reporting.
  Task      442 on host c4316.mahti.csc.fi reporting.
  Task      443 on host c4316.mahti.csc.fi reporting.
  Task      444 on host c4316.mahti.csc.fi reporting.
  Task      445 on host c4316.mahti.csc.fi reporting.
  Task      446 on host c4316.mahti.csc.fi reporting.
  Task      447 on host c4316.mahti.csc.fi reporting.
  Task      448 on host c4316.mahti.csc.fi reporting.
  Task      449 on host c4316.mahti.csc.fi reporting.
  Task      450 on host c4316.mahti.csc.fi reporting.
  Task      451 on host c4316.mahti.csc.fi reporting.
  Task      452 on host c4316.mahti.csc.fi reporting.
  Task      453 on host c4316.mahti.csc.fi reporting.
  Task      454 on host c4316.mahti.csc.fi reporting.
  Task      455 on host c4316.mahti.csc.fi reporting.
  Task      456 on host c4316.mahti.csc.fi reporting.
  Task      457 on host c4316.mahti.csc.fi reporting.
  Task      458 on host c4316.mahti.csc.fi reporting.
  Task      459 on host c4316.mahti.csc.fi reporting.
  Task      460 on host c4316.mahti.csc.fi reporting.
  Task      461 on host c4316.mahti.csc.fi reporting.
  Task      462 on host c4316.mahti.csc.fi reporting.
  Task      463 on host c4316.mahti.csc.fi reporting.
  Task      464 on host c4316.mahti.csc.fi reporting.
  Task      465 on host c4316.mahti.csc.fi reporting.
  Task      466 on host c4316.mahti.csc.fi reporting.
  Task      467 on host c4316.mahti.csc.fi reporting.
  Task      468 on host c4316.mahti.csc.fi reporting.
  Task      469 on host c4316.mahti.csc.fi reporting.
  Task      470 on host c4316.mahti.csc.fi reporting.
  Task      471 on host c4316.mahti.csc.fi reporting.
  Task      472 on host c4316.mahti.csc.fi reporting.
  Task      473 on host c4316.mahti.csc.fi reporting.
  Task      474 on host c4316.mahti.csc.fi reporting.
  Task      475 on host c4316.mahti.csc.fi reporting.
  Task      476 on host c4316.mahti.csc.fi reporting.
  Task      477 on host c4316.mahti.csc.fi reporting.
  Task      478 on host c4316.mahti.csc.fi reporting.
  Task      479 on host c4316.mahti.csc.fi reporting.
  Task      480 on host c4316.mahti.csc.fi reporting.
  Task      481 on host c4316.mahti.csc.fi reporting.
  Task      482 on host c4316.mahti.csc.fi reporting.
  Task      483 on host c4316.mahti.csc.fi reporting.
  Task      484 on host c4316.mahti.csc.fi reporting.
  Task      485 on host c4316.mahti.csc.fi reporting.
  Task      486 on host c4316.mahti.csc.fi reporting.
  Task      487 on host c4316.mahti.csc.fi reporting.
  Task      488 on host c4316.mahti.csc.fi reporting.
  Task      489 on host c4316.mahti.csc.fi reporting.
  Task      490 on host c4316.mahti.csc.fi reporting.
  Task      491 on host c4316.mahti.csc.fi reporting.
  Task      492 on host c4316.mahti.csc.fi reporting.
  Task      493 on host c4316.mahti.csc.fi reporting.
  Task      494 on host c4316.mahti.csc.fi reporting.
  Task      495 on host c4316.mahti.csc.fi reporting.
  Task      496 on host c4316.mahti.csc.fi reporting.
  Task      497 on host c4316.mahti.csc.fi reporting.
  Task      498 on host c4316.mahti.csc.fi reporting.
  Task      499 on host c4316.mahti.csc.fi reporting.
  Task      500 on host c4316.mahti.csc.fi reporting.
  Task      501 on host c4316.mahti.csc.fi reporting.
  Task      502 on host c4316.mahti.csc.fi reporting.
  Task      503 on host c4316.mahti.csc.fi reporting.
  Task      504 on host c4316.mahti.csc.fi reporting.
  Task      505 on host c4316.mahti.csc.fi reporting.
  Task      506 on host c4316.mahti.csc.fi reporting.
  Task      507 on host c4316.mahti.csc.fi reporting.
  Task      508 on host c4316.mahti.csc.fi reporting.
  Task      509 on host c4316.mahti.csc.fi reporting.
  Task      510 on host c4316.mahti.csc.fi reporting.
  Task      511 on host c4316.mahti.csc.fi reporting.
  Task      512 on host c4319.mahti.csc.fi reporting.
  Task      513 on host c4319.mahti.csc.fi reporting.
  Task      514 on host c4319.mahti.csc.fi reporting.
  Task      515 on host c4319.mahti.csc.fi reporting.
  Task      516 on host c4319.mahti.csc.fi reporting.
  Task      517 on host c4319.mahti.csc.fi reporting.
  Task      518 on host c4319.mahti.csc.fi reporting.
  Task      519 on host c4319.mahti.csc.fi reporting.
  Task      520 on host c4319.mahti.csc.fi reporting.
  Task      521 on host c4319.mahti.csc.fi reporting.
  Task      522 on host c4319.mahti.csc.fi reporting.
  Task      523 on host c4319.mahti.csc.fi reporting.
  Task      524 on host c4319.mahti.csc.fi reporting.
  Task      525 on host c4319.mahti.csc.fi reporting.
  Task      526 on host c4319.mahti.csc.fi reporting.
  Task      527 on host c4319.mahti.csc.fi reporting.
  Task      528 on host c4319.mahti.csc.fi reporting.
  Task      529 on host c4319.mahti.csc.fi reporting.
  Task      530 on host c4319.mahti.csc.fi reporting.
  Task      531 on host c4319.mahti.csc.fi reporting.
  Task      532 on host c4319.mahti.csc.fi reporting.
  Task      533 on host c4319.mahti.csc.fi reporting.
  Task      534 on host c4319.mahti.csc.fi reporting.
  Task      535 on host c4319.mahti.csc.fi reporting.
  Task      536 on host c4319.mahti.csc.fi reporting.
  Task      537 on host c4319.mahti.csc.fi reporting.
  Task      538 on host c4319.mahti.csc.fi reporting.
  Task      539 on host c4319.mahti.csc.fi reporting.
  Task      540 on host c4319.mahti.csc.fi reporting.
  Task      541 on host c4319.mahti.csc.fi reporting.
  Task      542 on host c4319.mahti.csc.fi reporting.
  Task      543 on host c4319.mahti.csc.fi reporting.
  Task      544 on host c4319.mahti.csc.fi reporting.
  Task      545 on host c4319.mahti.csc.fi reporting.
  Task      546 on host c4319.mahti.csc.fi reporting.
  Task      547 on host c4319.mahti.csc.fi reporting.
  Task      548 on host c4319.mahti.csc.fi reporting.
  Task      549 on host c4319.mahti.csc.fi reporting.
  Task      550 on host c4319.mahti.csc.fi reporting.
  Task      551 on host c4319.mahti.csc.fi reporting.
  Task      552 on host c4319.mahti.csc.fi reporting.
  Task      553 on host c4319.mahti.csc.fi reporting.
  Task      554 on host c4319.mahti.csc.fi reporting.
  Task      555 on host c4319.mahti.csc.fi reporting.
  Task      556 on host c4319.mahti.csc.fi reporting.
  Task      557 on host c4319.mahti.csc.fi reporting.
  Task      558 on host c4319.mahti.csc.fi reporting.
  Task      559 on host c4319.mahti.csc.fi reporting.
  Task      560 on host c4319.mahti.csc.fi reporting.
  Task      561 on host c4319.mahti.csc.fi reporting.
  Task      562 on host c4319.mahti.csc.fi reporting.
  Task      563 on host c4319.mahti.csc.fi reporting.
  Task      564 on host c4319.mahti.csc.fi reporting.
  Task      565 on host c4319.mahti.csc.fi reporting.
  Task      566 on host c4319.mahti.csc.fi reporting.
  Task      567 on host c4319.mahti.csc.fi reporting.
  Task      568 on host c4319.mahti.csc.fi reporting.
  Task      569 on host c4319.mahti.csc.fi reporting.
  Task      570 on host c4319.mahti.csc.fi reporting.
  Task      571 on host c4319.mahti.csc.fi reporting.
  Task      572 on host c4319.mahti.csc.fi reporting.
  Task      573 on host c4319.mahti.csc.fi reporting.
  Task      574 on host c4319.mahti.csc.fi reporting.
  Task      575 on host c4319.mahti.csc.fi reporting.
  Task      576 on host c4319.mahti.csc.fi reporting.
  Task      577 on host c4319.mahti.csc.fi reporting.
  Task      578 on host c4319.mahti.csc.fi reporting.
  Task      579 on host c4319.mahti.csc.fi reporting.
  Task      580 on host c4319.mahti.csc.fi reporting.
  Task      581 on host c4319.mahti.csc.fi reporting.
  Task      582 on host c4319.mahti.csc.fi reporting.
  Task      583 on host c4319.mahti.csc.fi reporting.
  Task      584 on host c4319.mahti.csc.fi reporting.
  Task      585 on host c4319.mahti.csc.fi reporting.
  Task      586 on host c4319.mahti.csc.fi reporting.
  Task      587 on host c4319.mahti.csc.fi reporting.
  Task      588 on host c4319.mahti.csc.fi reporting.
  Task      589 on host c4319.mahti.csc.fi reporting.
  Task      590 on host c4319.mahti.csc.fi reporting.
  Task      591 on host c4319.mahti.csc.fi reporting.
  Task      592 on host c4319.mahti.csc.fi reporting.
  Task      593 on host c4319.mahti.csc.fi reporting.
  Task      594 on host c4319.mahti.csc.fi reporting.
  Task      595 on host c4319.mahti.csc.fi reporting.
  Task      596 on host c4319.mahti.csc.fi reporting.
  Task      597 on host c4319.mahti.csc.fi reporting.
  Task      598 on host c4319.mahti.csc.fi reporting.
  Task      599 on host c4319.mahti.csc.fi reporting.
  Task      600 on host c4319.mahti.csc.fi reporting.
  Task      601 on host c4319.mahti.csc.fi reporting.
  Task      602 on host c4319.mahti.csc.fi reporting.
  Task      603 on host c4319.mahti.csc.fi reporting.
  Task      604 on host c4319.mahti.csc.fi reporting.
  Task      605 on host c4319.mahti.csc.fi reporting.
  Task      606 on host c4319.mahti.csc.fi reporting.
  Task      607 on host c4319.mahti.csc.fi reporting.
  Task      608 on host c4319.mahti.csc.fi reporting.
  Task      609 on host c4319.mahti.csc.fi reporting.
  Task      610 on host c4319.mahti.csc.fi reporting.
  Task      611 on host c4319.mahti.csc.fi reporting.
  Task      612 on host c4319.mahti.csc.fi reporting.
  Task      613 on host c4319.mahti.csc.fi reporting.
  Task      614 on host c4319.mahti.csc.fi reporting.
  Task      615 on host c4319.mahti.csc.fi reporting.
  Task      616 on host c4319.mahti.csc.fi reporting.
  Task      617 on host c4319.mahti.csc.fi reporting.
  Task      618 on host c4319.mahti.csc.fi reporting.
  Task      619 on host c4319.mahti.csc.fi reporting.
  Task      620 on host c4319.mahti.csc.fi reporting.
  Task      621 on host c4319.mahti.csc.fi reporting.
  Task      622 on host c4319.mahti.csc.fi reporting.
  Task      623 on host c4319.mahti.csc.fi reporting.
  Task      624 on host c4319.mahti.csc.fi reporting.
  Task      625 on host c4319.mahti.csc.fi reporting.
  Task      626 on host c4319.mahti.csc.fi reporting.
  Task      627 on host c4319.mahti.csc.fi reporting.
  Task      628 on host c4319.mahti.csc.fi reporting.
  Task      629 on host c4319.mahti.csc.fi reporting.
  Task      630 on host c4319.mahti.csc.fi reporting.
  Task      631 on host c4319.mahti.csc.fi reporting.
  Task      632 on host c4319.mahti.csc.fi reporting.
  Task      633 on host c4319.mahti.csc.fi reporting.
  Task      634 on host c4319.mahti.csc.fi reporting.
  Task      635 on host c4319.mahti.csc.fi reporting.
  Task      636 on host c4319.mahti.csc.fi reporting.
  Task      637 on host c4319.mahti.csc.fi reporting.
  Task      638 on host c4319.mahti.csc.fi reporting.
  Task      639 on host c4319.mahti.csc.fi reporting.
  Task      640 on host c4322.mahti.csc.fi reporting.
  Task      641 on host c4322.mahti.csc.fi reporting.
  Task      642 on host c4322.mahti.csc.fi reporting.
  Task      643 on host c4322.mahti.csc.fi reporting.
  Task      644 on host c4322.mahti.csc.fi reporting.
  Task      645 on host c4322.mahti.csc.fi reporting.
  Task      646 on host c4322.mahti.csc.fi reporting.
  Task      647 on host c4322.mahti.csc.fi reporting.
  Task      648 on host c4322.mahti.csc.fi reporting.
  Task      649 on host c4322.mahti.csc.fi reporting.
  Task      650 on host c4322.mahti.csc.fi reporting.
  Task      651 on host c4322.mahti.csc.fi reporting.
  Task      652 on host c4322.mahti.csc.fi reporting.
  Task      653 on host c4322.mahti.csc.fi reporting.
  Task      654 on host c4322.mahti.csc.fi reporting.
  Task      655 on host c4322.mahti.csc.fi reporting.
  Task      656 on host c4322.mahti.csc.fi reporting.
  Task      657 on host c4322.mahti.csc.fi reporting.
  Task      658 on host c4322.mahti.csc.fi reporting.
  Task      659 on host c4322.mahti.csc.fi reporting.
  Task      660 on host c4322.mahti.csc.fi reporting.
  Task      661 on host c4322.mahti.csc.fi reporting.
  Task      662 on host c4322.mahti.csc.fi reporting.
  Task      663 on host c4322.mahti.csc.fi reporting.
  Task      664 on host c4322.mahti.csc.fi reporting.
  Task      665 on host c4322.mahti.csc.fi reporting.
  Task      666 on host c4322.mahti.csc.fi reporting.
  Task      667 on host c4322.mahti.csc.fi reporting.
  Task      668 on host c4322.mahti.csc.fi reporting.
  Task      669 on host c4322.mahti.csc.fi reporting.
  Task      670 on host c4322.mahti.csc.fi reporting.
  Task      671 on host c4322.mahti.csc.fi reporting.
  Task      672 on host c4322.mahti.csc.fi reporting.
  Task      673 on host c4322.mahti.csc.fi reporting.
  Task      674 on host c4322.mahti.csc.fi reporting.
  Task      675 on host c4322.mahti.csc.fi reporting.
  Task      676 on host c4322.mahti.csc.fi reporting.
  Task      677 on host c4322.mahti.csc.fi reporting.
  Task      678 on host c4322.mahti.csc.fi reporting.
  Task      679 on host c4322.mahti.csc.fi reporting.
  Task      680 on host c4322.mahti.csc.fi reporting.
  Task      681 on host c4322.mahti.csc.fi reporting.
  Task      682 on host c4322.mahti.csc.fi reporting.
  Task      683 on host c4322.mahti.csc.fi reporting.
  Task      684 on host c4322.mahti.csc.fi reporting.
  Task      685 on host c4322.mahti.csc.fi reporting.
  Task      686 on host c4322.mahti.csc.fi reporting.
  Task      687 on host c4322.mahti.csc.fi reporting.
  Task      688 on host c4322.mahti.csc.fi reporting.
  Task      689 on host c4322.mahti.csc.fi reporting.
  Task      690 on host c4322.mahti.csc.fi reporting.
  Task      691 on host c4322.mahti.csc.fi reporting.
  Task      692 on host c4322.mahti.csc.fi reporting.
  Task      693 on host c4322.mahti.csc.fi reporting.
  Task      694 on host c4322.mahti.csc.fi reporting.
  Task      695 on host c4322.mahti.csc.fi reporting.
  Task      696 on host c4322.mahti.csc.fi reporting.
  Task      697 on host c4322.mahti.csc.fi reporting.
  Task      698 on host c4322.mahti.csc.fi reporting.
  Task      699 on host c4322.mahti.csc.fi reporting.
  Task      700 on host c4322.mahti.csc.fi reporting.
  Task      701 on host c4322.mahti.csc.fi reporting.
  Task      702 on host c4322.mahti.csc.fi reporting.
  Task      703 on host c4322.mahti.csc.fi reporting.
  Task      704 on host c4322.mahti.csc.fi reporting.
  Task      705 on host c4322.mahti.csc.fi reporting.
  Task      706 on host c4322.mahti.csc.fi reporting.
  Task      707 on host c4322.mahti.csc.fi reporting.
  Task      708 on host c4322.mahti.csc.fi reporting.
  Task      709 on host c4322.mahti.csc.fi reporting.
  Task      710 on host c4322.mahti.csc.fi reporting.
  Task      711 on host c4322.mahti.csc.fi reporting.
  Task      712 on host c4322.mahti.csc.fi reporting.
  Task      713 on host c4322.mahti.csc.fi reporting.
  Task      714 on host c4322.mahti.csc.fi reporting.
  Task      715 on host c4322.mahti.csc.fi reporting.
  Task      716 on host c4322.mahti.csc.fi reporting.
  Task      717 on host c4322.mahti.csc.fi reporting.
  Task      718 on host c4322.mahti.csc.fi reporting.
  Task      719 on host c4322.mahti.csc.fi reporting.
  Task      720 on host c4322.mahti.csc.fi reporting.
  Task      721 on host c4322.mahti.csc.fi reporting.
  Task      722 on host c4322.mahti.csc.fi reporting.
  Task      723 on host c4322.mahti.csc.fi reporting.
  Task      724 on host c4322.mahti.csc.fi reporting.
  Task      725 on host c4322.mahti.csc.fi reporting.
  Task      726 on host c4322.mahti.csc.fi reporting.
  Task      727 on host c4322.mahti.csc.fi reporting.
  Task      728 on host c4322.mahti.csc.fi reporting.
  Task      729 on host c4322.mahti.csc.fi reporting.
  Task      730 on host c4322.mahti.csc.fi reporting.
  Task      731 on host c4322.mahti.csc.fi reporting.
  Task      732 on host c4322.mahti.csc.fi reporting.
  Task      733 on host c4322.mahti.csc.fi reporting.
  Task      734 on host c4322.mahti.csc.fi reporting.
  Task      735 on host c4322.mahti.csc.fi reporting.
  Task      736 on host c4322.mahti.csc.fi reporting.
  Task      737 on host c4322.mahti.csc.fi reporting.
  Task      738 on host c4322.mahti.csc.fi reporting.
  Task      739 on host c4322.mahti.csc.fi reporting.
  Task      740 on host c4322.mahti.csc.fi reporting.
  Task      741 on host c4322.mahti.csc.fi reporting.
  Task      742 on host c4322.mahti.csc.fi reporting.
  Task      743 on host c4322.mahti.csc.fi reporting.
  Task      744 on host c4322.mahti.csc.fi reporting.
  Task      745 on host c4322.mahti.csc.fi reporting.
  Task      746 on host c4322.mahti.csc.fi reporting.
  Task      747 on host c4322.mahti.csc.fi reporting.
  Task      748 on host c4322.mahti.csc.fi reporting.
  Task      749 on host c4322.mahti.csc.fi reporting.
  Task      750 on host c4322.mahti.csc.fi reporting.
  Task      751 on host c4322.mahti.csc.fi reporting.
  Task      752 on host c4322.mahti.csc.fi reporting.
  Task      753 on host c4322.mahti.csc.fi reporting.
  Task      754 on host c4322.mahti.csc.fi reporting.
  Task      755 on host c4322.mahti.csc.fi reporting.
  Task      756 on host c4322.mahti.csc.fi reporting.
  Task      757 on host c4322.mahti.csc.fi reporting.
  Task      758 on host c4322.mahti.csc.fi reporting.
  Task      759 on host c4322.mahti.csc.fi reporting.
  Task      760 on host c4322.mahti.csc.fi reporting.
  Task      761 on host c4322.mahti.csc.fi reporting.
  Task      762 on host c4322.mahti.csc.fi reporting.
  Task      763 on host c4322.mahti.csc.fi reporting.
  Task      764 on host c4322.mahti.csc.fi reporting.
  Task      765 on host c4322.mahti.csc.fi reporting.
  Task      766 on host c4322.mahti.csc.fi reporting.
  Task      767 on host c4322.mahti.csc.fi reporting.
  Task      768 on host c4348.mahti.csc.fi reporting.
  Task      769 on host c4348.mahti.csc.fi reporting.
  Task      770 on host c4348.mahti.csc.fi reporting.
  Task      771 on host c4348.mahti.csc.fi reporting.
  Task      772 on host c4348.mahti.csc.fi reporting.
  Task      773 on host c4348.mahti.csc.fi reporting.
  Task      774 on host c4348.mahti.csc.fi reporting.
  Task      775 on host c4348.mahti.csc.fi reporting.
  Task      776 on host c4348.mahti.csc.fi reporting.
  Task      777 on host c4348.mahti.csc.fi reporting.
  Task      778 on host c4348.mahti.csc.fi reporting.
  Task      779 on host c4348.mahti.csc.fi reporting.
  Task      780 on host c4348.mahti.csc.fi reporting.
  Task      781 on host c4348.mahti.csc.fi reporting.
  Task      782 on host c4348.mahti.csc.fi reporting.
  Task      783 on host c4348.mahti.csc.fi reporting.
  Task      784 on host c4348.mahti.csc.fi reporting.
  Task      785 on host c4348.mahti.csc.fi reporting.
  Task      786 on host c4348.mahti.csc.fi reporting.
  Task      787 on host c4348.mahti.csc.fi reporting.
  Task      788 on host c4348.mahti.csc.fi reporting.
  Task      789 on host c4348.mahti.csc.fi reporting.
  Task      790 on host c4348.mahti.csc.fi reporting.
  Task      791 on host c4348.mahti.csc.fi reporting.
  Task      792 on host c4348.mahti.csc.fi reporting.
  Task      793 on host c4348.mahti.csc.fi reporting.
  Task      794 on host c4348.mahti.csc.fi reporting.
  Task      795 on host c4348.mahti.csc.fi reporting.
  Task      796 on host c4348.mahti.csc.fi reporting.
  Task      797 on host c4348.mahti.csc.fi reporting.
  Task      798 on host c4348.mahti.csc.fi reporting.
  Task      799 on host c4348.mahti.csc.fi reporting.
  Task      800 on host c4348.mahti.csc.fi reporting.
  Task      801 on host c4348.mahti.csc.fi reporting.
  Task      802 on host c4348.mahti.csc.fi reporting.
  Task      803 on host c4348.mahti.csc.fi reporting.
  Task      804 on host c4348.mahti.csc.fi reporting.
  Task      805 on host c4348.mahti.csc.fi reporting.
  Task      806 on host c4348.mahti.csc.fi reporting.
  Task      807 on host c4348.mahti.csc.fi reporting.
  Task      808 on host c4348.mahti.csc.fi reporting.
  Task      809 on host c4348.mahti.csc.fi reporting.
  Task      810 on host c4348.mahti.csc.fi reporting.
  Task      811 on host c4348.mahti.csc.fi reporting.
  Task      812 on host c4348.mahti.csc.fi reporting.
  Task      813 on host c4348.mahti.csc.fi reporting.
  Task      814 on host c4348.mahti.csc.fi reporting.
  Task      815 on host c4348.mahti.csc.fi reporting.
  Task      816 on host c4348.mahti.csc.fi reporting.
  Task      817 on host c4348.mahti.csc.fi reporting.
  Task      818 on host c4348.mahti.csc.fi reporting.
  Task      819 on host c4348.mahti.csc.fi reporting.
  Task      820 on host c4348.mahti.csc.fi reporting.
  Task      821 on host c4348.mahti.csc.fi reporting.
  Task      822 on host c4348.mahti.csc.fi reporting.
  Task      823 on host c4348.mahti.csc.fi reporting.
  Task      824 on host c4348.mahti.csc.fi reporting.
  Task      825 on host c4348.mahti.csc.fi reporting.
  Task      826 on host c4348.mahti.csc.fi reporting.
  Task      827 on host c4348.mahti.csc.fi reporting.
  Task      828 on host c4348.mahti.csc.fi reporting.
  Task      829 on host c4348.mahti.csc.fi reporting.
  Task      830 on host c4348.mahti.csc.fi reporting.
  Task      831 on host c4348.mahti.csc.fi reporting.
  Task      832 on host c4348.mahti.csc.fi reporting.
  Task      833 on host c4348.mahti.csc.fi reporting.
  Task      834 on host c4348.mahti.csc.fi reporting.
  Task      835 on host c4348.mahti.csc.fi reporting.
  Task      836 on host c4348.mahti.csc.fi reporting.
  Task      837 on host c4348.mahti.csc.fi reporting.
  Task      838 on host c4348.mahti.csc.fi reporting.
  Task      839 on host c4348.mahti.csc.fi reporting.
  Task      840 on host c4348.mahti.csc.fi reporting.
  Task      841 on host c4348.mahti.csc.fi reporting.
  Task      842 on host c4348.mahti.csc.fi reporting.
  Task      843 on host c4348.mahti.csc.fi reporting.
  Task      844 on host c4348.mahti.csc.fi reporting.
  Task      845 on host c4348.mahti.csc.fi reporting.
  Task      846 on host c4348.mahti.csc.fi reporting.
  Task      847 on host c4348.mahti.csc.fi reporting.
  Task      848 on host c4348.mahti.csc.fi reporting.
  Task      849 on host c4348.mahti.csc.fi reporting.
  Task      850 on host c4348.mahti.csc.fi reporting.
  Task      851 on host c4348.mahti.csc.fi reporting.
  Task      852 on host c4348.mahti.csc.fi reporting.
  Task      853 on host c4348.mahti.csc.fi reporting.
  Task      854 on host c4348.mahti.csc.fi reporting.
  Task      855 on host c4348.mahti.csc.fi reporting.
  Task      856 on host c4348.mahti.csc.fi reporting.
  Task      857 on host c4348.mahti.csc.fi reporting.
  Task      858 on host c4348.mahti.csc.fi reporting.
  Task      859 on host c4348.mahti.csc.fi reporting.
  Task      860 on host c4348.mahti.csc.fi reporting.
  Task      861 on host c4348.mahti.csc.fi reporting.
  Task      862 on host c4348.mahti.csc.fi reporting.
  Task      863 on host c4348.mahti.csc.fi reporting.
  Task      864 on host c4348.mahti.csc.fi reporting.
  Task      865 on host c4348.mahti.csc.fi reporting.
  Task      866 on host c4348.mahti.csc.fi reporting.
  Task      867 on host c4348.mahti.csc.fi reporting.
  Task      868 on host c4348.mahti.csc.fi reporting.
  Task      869 on host c4348.mahti.csc.fi reporting.
  Task      870 on host c4348.mahti.csc.fi reporting.
  Task      871 on host c4348.mahti.csc.fi reporting.
  Task      872 on host c4348.mahti.csc.fi reporting.
  Task      873 on host c4348.mahti.csc.fi reporting.
  Task      874 on host c4348.mahti.csc.fi reporting.
  Task      875 on host c4348.mahti.csc.fi reporting.
  Task      876 on host c4348.mahti.csc.fi reporting.
  Task      877 on host c4348.mahti.csc.fi reporting.
  Task      878 on host c4348.mahti.csc.fi reporting.
  Task      879 on host c4348.mahti.csc.fi reporting.
  Task      880 on host c4348.mahti.csc.fi reporting.
  Task      881 on host c4348.mahti.csc.fi reporting.
  Task      882 on host c4348.mahti.csc.fi reporting.
  Task      883 on host c4348.mahti.csc.fi reporting.
  Task      884 on host c4348.mahti.csc.fi reporting.
  Task      885 on host c4348.mahti.csc.fi reporting.
  Task      886 on host c4348.mahti.csc.fi reporting.
  Task      887 on host c4348.mahti.csc.fi reporting.
  Task      888 on host c4348.mahti.csc.fi reporting.
  Task      889 on host c4348.mahti.csc.fi reporting.
  Task      890 on host c4348.mahti.csc.fi reporting.
  Task      891 on host c4348.mahti.csc.fi reporting.
  Task      892 on host c4348.mahti.csc.fi reporting.
  Task      893 on host c4348.mahti.csc.fi reporting.
  Task      894 on host c4348.mahti.csc.fi reporting.
  Task      895 on host c4348.mahti.csc.fi reporting.
  Task      896 on host c4374.mahti.csc.fi reporting.
  Task      897 on host c4374.mahti.csc.fi reporting.
  Task      898 on host c4374.mahti.csc.fi reporting.
  Task      899 on host c4374.mahti.csc.fi reporting.
  Task      900 on host c4374.mahti.csc.fi reporting.
  Task      901 on host c4374.mahti.csc.fi reporting.
  Task      902 on host c4374.mahti.csc.fi reporting.
  Task      903 on host c4374.mahti.csc.fi reporting.
  Task      904 on host c4374.mahti.csc.fi reporting.
  Task      905 on host c4374.mahti.csc.fi reporting.
  Task      906 on host c4374.mahti.csc.fi reporting.
  Task      907 on host c4374.mahti.csc.fi reporting.
  Task      908 on host c4374.mahti.csc.fi reporting.
  Task      909 on host c4374.mahti.csc.fi reporting.
  Task      910 on host c4374.mahti.csc.fi reporting.
  Task      911 on host c4374.mahti.csc.fi reporting.
  Task      912 on host c4374.mahti.csc.fi reporting.
  Task      913 on host c4374.mahti.csc.fi reporting.
  Task      914 on host c4374.mahti.csc.fi reporting.
  Task      915 on host c4374.mahti.csc.fi reporting.
  Task      916 on host c4374.mahti.csc.fi reporting.
  Task      917 on host c4374.mahti.csc.fi reporting.
  Task      918 on host c4374.mahti.csc.fi reporting.
  Task      919 on host c4374.mahti.csc.fi reporting.
  Task      920 on host c4374.mahti.csc.fi reporting.
  Task      921 on host c4374.mahti.csc.fi reporting.
  Task      922 on host c4374.mahti.csc.fi reporting.
  Task      923 on host c4374.mahti.csc.fi reporting.
  Task      924 on host c4374.mahti.csc.fi reporting.
  Task      925 on host c4374.mahti.csc.fi reporting.
  Task      926 on host c4374.mahti.csc.fi reporting.
  Task      927 on host c4374.mahti.csc.fi reporting.
  Task      928 on host c4374.mahti.csc.fi reporting.
  Task      929 on host c4374.mahti.csc.fi reporting.
  Task      930 on host c4374.mahti.csc.fi reporting.
  Task      931 on host c4374.mahti.csc.fi reporting.
  Task      932 on host c4374.mahti.csc.fi reporting.
  Task      933 on host c4374.mahti.csc.fi reporting.
  Task      934 on host c4374.mahti.csc.fi reporting.
  Task      935 on host c4374.mahti.csc.fi reporting.
  Task      936 on host c4374.mahti.csc.fi reporting.
  Task      937 on host c4374.mahti.csc.fi reporting.
  Task      938 on host c4374.mahti.csc.fi reporting.
  Task      939 on host c4374.mahti.csc.fi reporting.
  Task      940 on host c4374.mahti.csc.fi reporting.
  Task      941 on host c4374.mahti.csc.fi reporting.
  Task      942 on host c4374.mahti.csc.fi reporting.
  Task      943 on host c4374.mahti.csc.fi reporting.
  Task      944 on host c4374.mahti.csc.fi reporting.
  Task      945 on host c4374.mahti.csc.fi reporting.
  Task      946 on host c4374.mahti.csc.fi reporting.
  Task      947 on host c4374.mahti.csc.fi reporting.
  Task      948 on host c4374.mahti.csc.fi reporting.
  Task      949 on host c4374.mahti.csc.fi reporting.
  Task      950 on host c4374.mahti.csc.fi reporting.
  Task      951 on host c4374.mahti.csc.fi reporting.
  Task      952 on host c4374.mahti.csc.fi reporting.
  Task      953 on host c4374.mahti.csc.fi reporting.
  Task      954 on host c4374.mahti.csc.fi reporting.
  Task      955 on host c4374.mahti.csc.fi reporting.
  Task      956 on host c4374.mahti.csc.fi reporting.
  Task      957 on host c4374.mahti.csc.fi reporting.
  Task      958 on host c4374.mahti.csc.fi reporting.
  Task      959 on host c4374.mahti.csc.fi reporting.
  Task      960 on host c4374.mahti.csc.fi reporting.
  Task      961 on host c4374.mahti.csc.fi reporting.
  Task      962 on host c4374.mahti.csc.fi reporting.
  Task      963 on host c4374.mahti.csc.fi reporting.
  Task      964 on host c4374.mahti.csc.fi reporting.
  Task      965 on host c4374.mahti.csc.fi reporting.
  Task      966 on host c4374.mahti.csc.fi reporting.
  Task      967 on host c4374.mahti.csc.fi reporting.
  Task      968 on host c4374.mahti.csc.fi reporting.
  Task      969 on host c4374.mahti.csc.fi reporting.
  Task      970 on host c4374.mahti.csc.fi reporting.
  Task      971 on host c4374.mahti.csc.fi reporting.
  Task      972 on host c4374.mahti.csc.fi reporting.
  Task      973 on host c4374.mahti.csc.fi reporting.
  Task      974 on host c4374.mahti.csc.fi reporting.
  Task      975 on host c4374.mahti.csc.fi reporting.
  Task      976 on host c4374.mahti.csc.fi reporting.
  Task      977 on host c4374.mahti.csc.fi reporting.
  Task      978 on host c4374.mahti.csc.fi reporting.
  Task      979 on host c4374.mahti.csc.fi reporting.
  Task      980 on host c4374.mahti.csc.fi reporting.
  Task      981 on host c4374.mahti.csc.fi reporting.
  Task      982 on host c4374.mahti.csc.fi reporting.
  Task      983 on host c4374.mahti.csc.fi reporting.
  Task      984 on host c4374.mahti.csc.fi reporting.
  Task      985 on host c4374.mahti.csc.fi reporting.
  Task      986 on host c4374.mahti.csc.fi reporting.
  Task      987 on host c4374.mahti.csc.fi reporting.
  Task      988 on host c4374.mahti.csc.fi reporting.
  Task      989 on host c4374.mahti.csc.fi reporting.
  Task      990 on host c4374.mahti.csc.fi reporting.
  Task      991 on host c4374.mahti.csc.fi reporting.
  Task      992 on host c4374.mahti.csc.fi reporting.
  Task      993 on host c4374.mahti.csc.fi reporting.
  Task      994 on host c4374.mahti.csc.fi reporting.
  Task      995 on host c4374.mahti.csc.fi reporting.
  Task      996 on host c4374.mahti.csc.fi reporting.
  Task      997 on host c4374.mahti.csc.fi reporting.
  Task      998 on host c4374.mahti.csc.fi reporting.
  Task      999 on host c4374.mahti.csc.fi reporting.
  Task     1000 on host c4374.mahti.csc.fi reporting.
  Task     1001 on host c4374.mahti.csc.fi reporting.
  Task     1002 on host c4374.mahti.csc.fi reporting.
  Task     1003 on host c4374.mahti.csc.fi reporting.
  Task     1004 on host c4374.mahti.csc.fi reporting.
  Task     1005 on host c4374.mahti.csc.fi reporting.
  Task     1006 on host c4374.mahti.csc.fi reporting.
  Task     1007 on host c4374.mahti.csc.fi reporting.
  Task     1008 on host c4374.mahti.csc.fi reporting.
  Task     1009 on host c4374.mahti.csc.fi reporting.
  Task     1010 on host c4374.mahti.csc.fi reporting.
  Task     1011 on host c4374.mahti.csc.fi reporting.
  Task     1012 on host c4374.mahti.csc.fi reporting.
  Task     1013 on host c4374.mahti.csc.fi reporting.
  Task     1014 on host c4374.mahti.csc.fi reporting.
  Task     1015 on host c4374.mahti.csc.fi reporting.
  Task     1016 on host c4374.mahti.csc.fi reporting.
  Task     1017 on host c4374.mahti.csc.fi reporting.
  Task     1018 on host c4374.mahti.csc.fi reporting.
  Task     1019 on host c4374.mahti.csc.fi reporting.
  Task     1020 on host c4374.mahti.csc.fi reporting.
  Task     1021 on host c4374.mahti.csc.fi reporting.
  Task     1022 on host c4374.mahti.csc.fi reporting.
  Task     1023 on host c4374.mahti.csc.fi reporting.
  Task     1024 on host c4375.mahti.csc.fi reporting.
  Task     1025 on host c4375.mahti.csc.fi reporting.
  Task     1026 on host c4375.mahti.csc.fi reporting.
  Task     1027 on host c4375.mahti.csc.fi reporting.
  Task     1028 on host c4375.mahti.csc.fi reporting.
  Task     1029 on host c4375.mahti.csc.fi reporting.
  Task     1030 on host c4375.mahti.csc.fi reporting.
  Task     1031 on host c4375.mahti.csc.fi reporting.
  Task     1032 on host c4375.mahti.csc.fi reporting.
  Task     1033 on host c4375.mahti.csc.fi reporting.
  Task     1034 on host c4375.mahti.csc.fi reporting.
  Task     1035 on host c4375.mahti.csc.fi reporting.
  Task     1036 on host c4375.mahti.csc.fi reporting.
  Task     1037 on host c4375.mahti.csc.fi reporting.
  Task     1038 on host c4375.mahti.csc.fi reporting.
  Task     1039 on host c4375.mahti.csc.fi reporting.
  Task     1040 on host c4375.mahti.csc.fi reporting.
  Task     1041 on host c4375.mahti.csc.fi reporting.
  Task     1042 on host c4375.mahti.csc.fi reporting.
  Task     1043 on host c4375.mahti.csc.fi reporting.
  Task     1044 on host c4375.mahti.csc.fi reporting.
  Task     1045 on host c4375.mahti.csc.fi reporting.
  Task     1046 on host c4375.mahti.csc.fi reporting.
  Task     1047 on host c4375.mahti.csc.fi reporting.
  Task     1048 on host c4375.mahti.csc.fi reporting.
  Task     1049 on host c4375.mahti.csc.fi reporting.
  Task     1050 on host c4375.mahti.csc.fi reporting.
  Task     1051 on host c4375.mahti.csc.fi reporting.
  Task     1052 on host c4375.mahti.csc.fi reporting.
  Task     1053 on host c4375.mahti.csc.fi reporting.
  Task     1054 on host c4375.mahti.csc.fi reporting.
  Task     1055 on host c4375.mahti.csc.fi reporting.
  Task     1056 on host c4375.mahti.csc.fi reporting.
  Task     1057 on host c4375.mahti.csc.fi reporting.
  Task     1058 on host c4375.mahti.csc.fi reporting.
  Task     1059 on host c4375.mahti.csc.fi reporting.
  Task     1060 on host c4375.mahti.csc.fi reporting.
  Task     1061 on host c4375.mahti.csc.fi reporting.
  Task     1062 on host c4375.mahti.csc.fi reporting.
  Task     1063 on host c4375.mahti.csc.fi reporting.
  Task     1064 on host c4375.mahti.csc.fi reporting.
  Task     1065 on host c4375.mahti.csc.fi reporting.
  Task     1066 on host c4375.mahti.csc.fi reporting.
  Task     1067 on host c4375.mahti.csc.fi reporting.
  Task     1068 on host c4375.mahti.csc.fi reporting.
  Task     1069 on host c4375.mahti.csc.fi reporting.
  Task     1070 on host c4375.mahti.csc.fi reporting.
  Task     1071 on host c4375.mahti.csc.fi reporting.
  Task     1072 on host c4375.mahti.csc.fi reporting.
  Task     1073 on host c4375.mahti.csc.fi reporting.
  Task     1074 on host c4375.mahti.csc.fi reporting.
  Task     1075 on host c4375.mahti.csc.fi reporting.
  Task     1076 on host c4375.mahti.csc.fi reporting.
  Task     1077 on host c4375.mahti.csc.fi reporting.
  Task     1078 on host c4375.mahti.csc.fi reporting.
  Task     1079 on host c4375.mahti.csc.fi reporting.
  Task     1080 on host c4375.mahti.csc.fi reporting.
  Task     1081 on host c4375.mahti.csc.fi reporting.
  Task     1082 on host c4375.mahti.csc.fi reporting.
  Task     1083 on host c4375.mahti.csc.fi reporting.
  Task     1084 on host c4375.mahti.csc.fi reporting.
  Task     1085 on host c4375.mahti.csc.fi reporting.
  Task     1086 on host c4375.mahti.csc.fi reporting.
  Task     1087 on host c4375.mahti.csc.fi reporting.
  Task     1088 on host c4375.mahti.csc.fi reporting.
  Task     1089 on host c4375.mahti.csc.fi reporting.
  Task     1090 on host c4375.mahti.csc.fi reporting.
  Task     1091 on host c4375.mahti.csc.fi reporting.
  Task     1092 on host c4375.mahti.csc.fi reporting.
  Task     1093 on host c4375.mahti.csc.fi reporting.
  Task     1094 on host c4375.mahti.csc.fi reporting.
  Task     1095 on host c4375.mahti.csc.fi reporting.
  Task     1096 on host c4375.mahti.csc.fi reporting.
  Task     1097 on host c4375.mahti.csc.fi reporting.
  Task     1098 on host c4375.mahti.csc.fi reporting.
  Task     1099 on host c4375.mahti.csc.fi reporting.
  Task     1100 on host c4375.mahti.csc.fi reporting.
  Task     1101 on host c4375.mahti.csc.fi reporting.
  Task     1102 on host c4375.mahti.csc.fi reporting.
  Task     1103 on host c4375.mahti.csc.fi reporting.
  Task     1104 on host c4375.mahti.csc.fi reporting.
  Task     1105 on host c4375.mahti.csc.fi reporting.
  Task     1106 on host c4375.mahti.csc.fi reporting.
  Task     1107 on host c4375.mahti.csc.fi reporting.
  Task     1108 on host c4375.mahti.csc.fi reporting.
  Task     1109 on host c4375.mahti.csc.fi reporting.
  Task     1110 on host c4375.mahti.csc.fi reporting.
  Task     1111 on host c4375.mahti.csc.fi reporting.
  Task     1112 on host c4375.mahti.csc.fi reporting.
  Task     1113 on host c4375.mahti.csc.fi reporting.
  Task     1114 on host c4375.mahti.csc.fi reporting.
  Task     1115 on host c4375.mahti.csc.fi reporting.
  Task     1116 on host c4375.mahti.csc.fi reporting.
  Task     1117 on host c4375.mahti.csc.fi reporting.
  Task     1118 on host c4375.mahti.csc.fi reporting.
  Task     1119 on host c4375.mahti.csc.fi reporting.
  Task     1120 on host c4375.mahti.csc.fi reporting.
  Task     1121 on host c4375.mahti.csc.fi reporting.
  Task     1122 on host c4375.mahti.csc.fi reporting.
  Task     1123 on host c4375.mahti.csc.fi reporting.
  Task     1124 on host c4375.mahti.csc.fi reporting.
  Task     1125 on host c4375.mahti.csc.fi reporting.
  Task     1126 on host c4375.mahti.csc.fi reporting.
  Task     1127 on host c4375.mahti.csc.fi reporting.
  Task     1128 on host c4375.mahti.csc.fi reporting.
  Task     1129 on host c4375.mahti.csc.fi reporting.
  Task     1130 on host c4375.mahti.csc.fi reporting.
  Task     1131 on host c4375.mahti.csc.fi reporting.
  Task     1132 on host c4375.mahti.csc.fi reporting.
  Task     1133 on host c4375.mahti.csc.fi reporting.
  Task     1134 on host c4375.mahti.csc.fi reporting.
  Task     1135 on host c4375.mahti.csc.fi reporting.
  Task     1136 on host c4375.mahti.csc.fi reporting.
  Task     1137 on host c4375.mahti.csc.fi reporting.
  Task     1138 on host c4375.mahti.csc.fi reporting.
  Task     1139 on host c4375.mahti.csc.fi reporting.
  Task     1140 on host c4375.mahti.csc.fi reporting.
  Task     1141 on host c4375.mahti.csc.fi reporting.
  Task     1142 on host c4375.mahti.csc.fi reporting.
  Task     1143 on host c4375.mahti.csc.fi reporting.
  Task     1144 on host c4375.mahti.csc.fi reporting.
  Task     1145 on host c4375.mahti.csc.fi reporting.
  Task     1146 on host c4375.mahti.csc.fi reporting.
  Task     1147 on host c4375.mahti.csc.fi reporting.
  Task     1148 on host c4375.mahti.csc.fi reporting.
  Task     1149 on host c4375.mahti.csc.fi reporting.
  Task     1150 on host c4375.mahti.csc.fi reporting.
  Task     1151 on host c4375.mahti.csc.fi reporting.
  Task     1152 on host c4377.mahti.csc.fi reporting.
  Task     1153 on host c4377.mahti.csc.fi reporting.
  Task     1154 on host c4377.mahti.csc.fi reporting.
  Task     1155 on host c4377.mahti.csc.fi reporting.
  Task     1156 on host c4377.mahti.csc.fi reporting.
  Task     1157 on host c4377.mahti.csc.fi reporting.
  Task     1158 on host c4377.mahti.csc.fi reporting.
  Task     1159 on host c4377.mahti.csc.fi reporting.
  Task     1160 on host c4377.mahti.csc.fi reporting.
  Task     1161 on host c4377.mahti.csc.fi reporting.
  Task     1162 on host c4377.mahti.csc.fi reporting.
  Task     1163 on host c4377.mahti.csc.fi reporting.
  Task     1164 on host c4377.mahti.csc.fi reporting.
  Task     1165 on host c4377.mahti.csc.fi reporting.
  Task     1166 on host c4377.mahti.csc.fi reporting.
  Task     1167 on host c4377.mahti.csc.fi reporting.
  Task     1168 on host c4377.mahti.csc.fi reporting.
  Task     1169 on host c4377.mahti.csc.fi reporting.
  Task     1170 on host c4377.mahti.csc.fi reporting.
  Task     1171 on host c4377.mahti.csc.fi reporting.
  Task     1172 on host c4377.mahti.csc.fi reporting.
  Task     1173 on host c4377.mahti.csc.fi reporting.
  Task     1174 on host c4377.mahti.csc.fi reporting.
  Task     1175 on host c4377.mahti.csc.fi reporting.
  Task     1176 on host c4377.mahti.csc.fi reporting.
  Task     1177 on host c4377.mahti.csc.fi reporting.
  Task     1178 on host c4377.mahti.csc.fi reporting.
  Task     1179 on host c4377.mahti.csc.fi reporting.
  Task     1180 on host c4377.mahti.csc.fi reporting.
  Task     1181 on host c4377.mahti.csc.fi reporting.
  Task     1182 on host c4377.mahti.csc.fi reporting.
  Task     1183 on host c4377.mahti.csc.fi reporting.
  Task     1184 on host c4377.mahti.csc.fi reporting.
  Task     1185 on host c4377.mahti.csc.fi reporting.
  Task     1186 on host c4377.mahti.csc.fi reporting.
  Task     1187 on host c4377.mahti.csc.fi reporting.
  Task     1188 on host c4377.mahti.csc.fi reporting.
  Task     1189 on host c4377.mahti.csc.fi reporting.
  Task     1190 on host c4377.mahti.csc.fi reporting.
  Task     1191 on host c4377.mahti.csc.fi reporting.
  Task     1192 on host c4377.mahti.csc.fi reporting.
  Task     1193 on host c4377.mahti.csc.fi reporting.
  Task     1194 on host c4377.mahti.csc.fi reporting.
  Task     1195 on host c4377.mahti.csc.fi reporting.
  Task     1196 on host c4377.mahti.csc.fi reporting.
  Task     1197 on host c4377.mahti.csc.fi reporting.
  Task     1198 on host c4377.mahti.csc.fi reporting.
  Task     1199 on host c4377.mahti.csc.fi reporting.
  Task     1200 on host c4377.mahti.csc.fi reporting.
  Task     1201 on host c4377.mahti.csc.fi reporting.
  Task     1202 on host c4377.mahti.csc.fi reporting.
  Task     1203 on host c4377.mahti.csc.fi reporting.
  Task     1204 on host c4377.mahti.csc.fi reporting.
  Task     1205 on host c4377.mahti.csc.fi reporting.
  Task     1206 on host c4377.mahti.csc.fi reporting.
  Task     1207 on host c4377.mahti.csc.fi reporting.
  Task     1208 on host c4377.mahti.csc.fi reporting.
  Task     1209 on host c4377.mahti.csc.fi reporting.
  Task     1210 on host c4377.mahti.csc.fi reporting.
  Task     1211 on host c4377.mahti.csc.fi reporting.
  Task     1212 on host c4377.mahti.csc.fi reporting.
  Task     1213 on host c4377.mahti.csc.fi reporting.
  Task     1214 on host c4377.mahti.csc.fi reporting.
  Task     1215 on host c4377.mahti.csc.fi reporting.
  Task     1216 on host c4377.mahti.csc.fi reporting.
  Task     1217 on host c4377.mahti.csc.fi reporting.
  Task     1218 on host c4377.mahti.csc.fi reporting.
  Task     1219 on host c4377.mahti.csc.fi reporting.
  Task     1220 on host c4377.mahti.csc.fi reporting.
  Task     1221 on host c4377.mahti.csc.fi reporting.
  Task     1222 on host c4377.mahti.csc.fi reporting.
  Task     1223 on host c4377.mahti.csc.fi reporting.
  Task     1224 on host c4377.mahti.csc.fi reporting.
  Task     1225 on host c4377.mahti.csc.fi reporting.
  Task     1226 on host c4377.mahti.csc.fi reporting.
  Task     1227 on host c4377.mahti.csc.fi reporting.
  Task     1228 on host c4377.mahti.csc.fi reporting.
  Task     1229 on host c4377.mahti.csc.fi reporting.
  Task     1230 on host c4377.mahti.csc.fi reporting.
  Task     1231 on host c4377.mahti.csc.fi reporting.
  Task     1232 on host c4377.mahti.csc.fi reporting.
  Task     1233 on host c4377.mahti.csc.fi reporting.
  Task     1234 on host c4377.mahti.csc.fi reporting.
  Task     1235 on host c4377.mahti.csc.fi reporting.
  Task     1236 on host c4377.mahti.csc.fi reporting.
  Task     1237 on host c4377.mahti.csc.fi reporting.
  Task     1238 on host c4377.mahti.csc.fi reporting.
  Task     1239 on host c4377.mahti.csc.fi reporting.
  Task     1240 on host c4377.mahti.csc.fi reporting.
  Task     1241 on host c4377.mahti.csc.fi reporting.
  Task     1242 on host c4377.mahti.csc.fi reporting.
  Task     1243 on host c4377.mahti.csc.fi reporting.
  Task     1244 on host c4377.mahti.csc.fi reporting.
  Task     1245 on host c4377.mahti.csc.fi reporting.
  Task     1246 on host c4377.mahti.csc.fi reporting.
  Task     1247 on host c4377.mahti.csc.fi reporting.
  Task     1248 on host c4377.mahti.csc.fi reporting.
  Task     1249 on host c4377.mahti.csc.fi reporting.
  Task     1250 on host c4377.mahti.csc.fi reporting.
  Task     1251 on host c4377.mahti.csc.fi reporting.
  Task     1252 on host c4377.mahti.csc.fi reporting.
  Task     1253 on host c4377.mahti.csc.fi reporting.
  Task     1254 on host c4377.mahti.csc.fi reporting.
  Task     1255 on host c4377.mahti.csc.fi reporting.
  Task     1256 on host c4377.mahti.csc.fi reporting.
  Task     1257 on host c4377.mahti.csc.fi reporting.
  Task     1258 on host c4377.mahti.csc.fi reporting.
  Task     1259 on host c4377.mahti.csc.fi reporting.
  Task     1260 on host c4377.mahti.csc.fi reporting.
  Task     1261 on host c4377.mahti.csc.fi reporting.
  Task     1262 on host c4377.mahti.csc.fi reporting.
  Task     1263 on host c4377.mahti.csc.fi reporting.
  Task     1264 on host c4377.mahti.csc.fi reporting.
  Task     1265 on host c4377.mahti.csc.fi reporting.
  Task     1266 on host c4377.mahti.csc.fi reporting.
  Task     1267 on host c4377.mahti.csc.fi reporting.
  Task     1268 on host c4377.mahti.csc.fi reporting.
  Task     1269 on host c4377.mahti.csc.fi reporting.
  Task     1270 on host c4377.mahti.csc.fi reporting.
  Task     1271 on host c4377.mahti.csc.fi reporting.
  Task     1272 on host c4377.mahti.csc.fi reporting.
  Task     1273 on host c4377.mahti.csc.fi reporting.
  Task     1274 on host c4377.mahti.csc.fi reporting.
  Task     1275 on host c4377.mahti.csc.fi reporting.
  Task     1276 on host c4377.mahti.csc.fi reporting.
  Task     1277 on host c4377.mahti.csc.fi reporting.
  Task     1278 on host c4377.mahti.csc.fi reporting.
  Task     1279 on host c4377.mahti.csc.fi reporting.

  Performing system and environment tests:
  *** Environment variable OMP_NUM_THREADS is not set
  *** For performance reasons you might want to set it to 1
  | Checking for ScaLAPACK...
  | Testing pdtran()...
  | All pdtran() tests passed.

  Obtaining array dimensions for all initial allocations:
  
  -----------------------------------------------------------------------
  Parsing control.in (first pass over file, find array dimensions only).
  The contents of control.in will be repeated verbatim below
  unless switched off by setting 'verbatim_writeout .false.' .
  in the first line of control.in .
  -----------------------------------------------------------------------
  
  #Sample input file for surface calculation of CsPbI3
  
  ##########xc pbesol
  xc hse06 0.11
  hse_unit bohr-1
  hybrid_xc_coeff 0.5
  charge 0.0
  relativistic            atomic_zora     scalar
  spin none
  default_initial_moment 0
  include_spin_orbit      non_self_consistent
  #SCF Accuracy#############################################
  occupation_type       gaussian 0.01
  mixer                 pulay
  n_max_pulay           12
  charge_mix_param     1E-2
  sc_accuracy_eev 1E-3
  sc_accuracy_etot 1E-6
  sc_accuracy_rho 1E-6
  #sc_accuracy_forces 5E-4
  sc_iter_limit 1000
  #sc_iter_limit 3
  energy_tolerance 5E-3
  override_illconditioning .true.
  #use_dipole_correction
  #restart_read_only CsPbI3.out
  ###### Relaxation #######################################
  #relax_geometry trm 5E-3
  #relax_unit_cell         fixed_angles
  
  ######VDM correction#####################################
  #vdw_correction_hirshfeld
  
  # k-point grid
  k_grid                     8   8   8
  #k_offset                .125 .125 .125
  
  output                  k_point_list
  #################DOS###########################################
  #output dos  -8.04353375 -2.04353375 100 0.1
  #dos_kgrid_factors 8 8 1
  
  #output species_proj_dos -8.04353375 -2.04353375 100 0.1
  ################Band structure############################################
  exx_band_structure_version 1
  output band 0.5 0.5 0.0 0.5 0.5 0.5 15 M R
  output band 0.5 0.5 0.5 0.0 0.0 0.0 15  R  Gamma
  output band 0.0 0.0 0.0 0.0 0.5 0.0 15 Gamma  X
  output band 0.0 0.5 0.0 0.5 0.5 0.0 15 X  M
  output band 0.5 0.5 0.0 0.0 0.0 0.0 15  M Gamma
  
  ################################################################################
  #
  #  FHI-aims code project
  # Volker Blum, Fritz Haber Institute Berlin, 2009
  #
  #  Suggested "tight" defaults for O atom (to be pasted into control.in file)
  #
  ################################################################################
    species        O
  #     global species definitions
      nucleus             8
      mass                15.9994
  #
      l_hartree           6
  #
      cut_pot             4.0  2.0  1.0
      basis_dep_cutoff    1e-4
  #
      radial_base         36 7.0
      radial_multiplier   2
       angular_grids specified
        division   0.1817   50
        division   0.3417  110
        division   0.4949  194
        division   0.6251  302
        division   0.8014  434
  #      division   0.8507  590
  #      division   0.8762  770
  #      division   0.9023  974
  #      division   1.2339 1202
  #      outer_grid 974
        outer_grid  434
  ################################################################################
  #
  #  Definition of "minimal" basis
  #
  ################################################################################
  #     valence basis states
      valence      2  s   2.
      valence      2  p   4.
  #     ion occupancy
      ion_occ      2  s   1.
      ion_occ      2  p   3.
  ################################################################################
  #
  #  Suggested additional basis functions. For production calculations,
  #  uncomment them one after another (the most important basis functions are
  #  listed first).
  #
  #  Constructed for dimers: 1.0 A, 1.208 A, 1.5 A, 2.0 A, 3.0 A
  #
  ################################################################################
  #  "First tier" - improvements: -699.05 meV to -159.38 meV
       hydro 2 p 1.8
       hydro 3 d 7.6
       hydro 3 s 6.4
  #  "Second tier" - improvements: -49.91 meV to -5.39 meV
       hydro 4 f 11.6
       hydro 3 p 6.2
       hydro 3 d 5.6
       hydro 5 g 17.6
       hydro 1 s 0.75
  #  "Third tier" - improvements: -2.83 meV to -0.50 meV
  #     ionic 2 p auto
  #     hydro 4 f 10.8
  #     hydro 4 d 4.7
  #     hydro 2 s 6.8
  #  "Fourth tier" - improvements: -0.40 meV to -0.12 meV
  #     hydro 3 p 5
  #     hydro 3 s 3.3
  #     hydro 5 g 15.6
  #     hydro 4 f 17.6
  #     hydro 4 d 14
  # Further basis functions - -0.08 meV and below
  #     hydro 3 s 2.1
  #     hydro 4 d 11.6
  #     hydro 3 p 16
  #     hydro 2 s 17.2
  ################################################################################
  #
  # For methods that use the localized form of the "resolution of identity" for
  # the two-electron Coulomb operator (RI_method LVL), particularly Hartree-Fock and
  # hybrid density functional calculations, the highest accuracy can be obtained by
  # uncommenting the line beginning with "for_aux"  below, thus adding an extra g radial
  # function to the construction of the product basis set for the expansion.
  # See Ref. New J. Phys. 17, 093020 (2015) for more information, particularly Figs. 1 and 6.
  #
  ################################################################################
  #
  # for_aux hydro 5 g 6.0
  ################################################################################
  #
  #  FHI-aims code project
  # Volker Blum, Fritz Haber Institute Berlin, 2010
  #
  #  Suggested "tight" defaults for Zn atom (to be pasted into control.in file)
  #
  ################################################################################
    species        Zn
  #     global species definitions
      nucleus             30
      mass                65.409
  #
      l_hartree           6
  #
      cut_pot             4.0          2.0  1.0
      basis_dep_cutoff    1e-4
  #
      radial_base         53 7.0
      radial_multiplier   2
      angular_grids       specified
        division   0.4348   50
        division   0.7981  110
        division   1.1328  194
        division   1.3947  302
        division   1.6856  434
  #      division   1.8921  590
  #      division   2.0877  770
  #      division   2.1730  974
  #      division   2.5659 1202
        outer_grid  434
  ################################################################################
  #
  #  Definition of "minimal" basis
  #
  ################################################################################
  #     valence basis states
      valence      4  s   2.
      valence      3  p   6.
      valence      3  d  10.
  #     ion occupancy
      ion_occ      4  s   1.
      ion_occ      3  p   6.
      ion_occ      3  d   9.
  ################################################################################
  #
  #  Suggested additional basis functions. For production calculations,
  #  uncomment them one after another (the most important basis functions are
  #  listed first).
  #
  #  Constructed for dimers: 2.00 A, 2.30 A, 2.85 A, 3.50 A, 4.25 A
  #
  ################################################################################
  #  "First tier" - improvements: -270.82 meV to -12.81 meV
       hydro 2 p 1.7
       hydro 3 s 2.9
       hydro 4 p 5.4
       hydro 4 f 7.8
       hydro 3 d 4.5
  #  "Second tier" - improvements: -3.35 meV to -0.82 meV
  #     hydro 5 g 10.8
  #     hydro 2 p 2.4
  #     hydro 3 s 6.2
  #     hydro 3 d 3
  #  "Third tier" - improvements: -0.61 meV to -0.12 meV
  #     hydro 6 h 15.2
  #     ionic 4 p auto
  #     hydro 5 s 12.8
  #     hydro 4 f 5.4
  #     hydro 4 d 7
  #  Further functions - improvements: -0.16 meV and below
  #     hydro 4 f 20
  #     hydro 3 p 2.2
  #     hydro 5 f 6.4
  #     hydro 5 g 8
  ################################################################################
  #
[...]
    341       0.00000                       8.145376           8.222570             0.109903
    342       0.00000                       8.145376           8.222570             0.000000
    343       0.00000                       8.800364           8.696704             0.474134
    344       0.00000                       8.800364           8.696704             0.000000
    345       0.00000                       8.800372           8.696761             0.000057
    346       0.00000                       8.800372           8.696761             0.000000
    347       0.00000                       8.800372           8.935500             0.238739
    348       0.00000                       8.800372           8.935500             0.000000
    349       0.00000                       9.126054           9.080747             0.145247
    350       0.00000                       9.126054           9.080747             0.000000
    351       0.00000                       9.126076           9.334813             0.254066
    352       0.00000                       9.126076           9.334813             0.000000
    353       0.00000                       9.126093           9.515281             0.180468
    354       0.00000                       9.126093           9.515281             0.000000
    355       0.00000                       9.334786           9.515327             0.000046
    356       0.00000                       9.334786           9.515327             0.000000
    357       0.00000                      10.129510          10.133500             0.618173
    358       0.00000                      10.129510          10.133500             0.000000

  What follows are estimated values for band gap, HOMO, LUMO, etc.
  | They are estimated on a discrete k-point grid and not necessarily exact.
  | For converged numbers, create a DOS and/or band structure plot on a denser k-grid.

  Highest occupied state (VBM) at     -6.01490148 eV (relative to internal zero)
  | Occupation number:      1.00000000
  | K-point:     293 at    0.500000    0.500000    0.500000 (in units of recip. lattice)

  Lowest unoccupied state (CBM) at    -4.65380784 eV (relative to internal zero)
  | Occupation number:      0.00000000
  | K-point:     293 at    0.500000    0.500000    0.500000 (in units of recip. lattice)

  ESTIMATED overall HOMO-LUMO gap:      1.36109363 eV between HOMO at k-point 293 and LUMO at k-point 293
  | This appears to be a direct band gap.
  The gap value is above 0.2 eV. Unless you are using a very sparse k-point grid,
  this system is most likely an insulator or a semiconductor.

  Spin-orbit coupling                                     :  max(cpu_time)    wall_clock(cpu1)
  | Computing matrix elements for SOC operator            :          0.172               0.172
  | Constructing second-variational Hamiltonian           :          0.035               0.037
  | Diagonalizing second-variational Hamiltonian          :          0.053               0.053
  | Syncing data and calculating occupations              :          0.083               0.077
  | Writing out data, calculating band gaps, etc.         :          0.004               0.005
  | Total SOC time                                        :          0.357               0.357

  Partial memory accounting:
  | Current value for overall tracked memory usage:
  |   Minimum:       11.901 MB (on task   32)
  |   Maximum:       20.502 MB (on task  635)
  |   Average:       14.719 MB
  | Peak value for overall tracked memory usage:
  |   Minimum:       33.883 MB (on task  925 after allocating potential_shell)
  |   Maximum:       66.268 MB (on task  365 after allocating tmp2_aux)
  |   Average:       47.205 MB
  | Largest tracked array allocation so far:
  |   Minimum:       13.740 MB (aux_mat on task  104)
  |   Maximum:       22.102 MB (dm_cols_mem on task  362)
  |   Average:       18.064 MB
  Note:  These values currently only include a subset of arrays which are explicitly tracked.
  The "true" memory usage will be greater.
 ------------------------------------------------------------

  -------------------------------------------------------------------
  Writing the requested band structure output (ScaLAPACK version):
  -------------------------------------------------------------------

  Integrating Hamiltonian matrix: batch-based integration.
  Time summed over all CPUs for integration: real work       15.307 s, elapsed       21.623 s => Consider using load balancing!
  Allocating        7.649 MB for soc_matrix
  Integrating SOC matrix: batch-based integration p2 version.
  Allocating        0.119 MB for dist_tab
  Allocating        0.119 MB for dist_tab_sq
  Allocating        0.357 MB for dir_tab
  Allocating        0.032 MB for i_basis_fns
  Allocating        1.043 MB for i_basis_fns_inv
  Allocating        0.032 MB for i_atom_fns
  Allocating        1.661 MB for gradient_basis_wave
  Allocating        0.005 MB for ylm_tab
  Allocating        0.001 MB for radial_wave
  Allocating        0.001 MB for radial_wave_deriv
  Allocating        0.012 MB for i_basis
  Allocating        2.111 MB for soc_shell
  Allocating        0.015 MB for cartesians
  Allocating        0.015 MB for sum_gradient
  Allocating        0.031 MB for sum_hessian
  Allocating        0.001 MB for potential_shell

  Treating all k-points in band plot segment #   1, one-by-one:


  Calculating k-point    1 in band plot segment #   1:
  Overlap matrix is not singular
  | Lowest and highest eigenvalues :  0.2995E-02,  0.5042E+01
  Finished singularity check of overlap matrix
  | Time :     0.010 s
  Starting ELPA eigensolver
  Finished Cholesky decomposition
  | Time :     0.003 s
  Finished transformation to standard eigenproblem
  | Time :     0.003 s
  Finished solving standard eigenproblem
  | Time :     0.023 s
  Finished back-transformation of eigenvectors
  | Time :     0.002 s

  Scalar-relativistic "band gap" along reciprocal space direction number:    1
  |Lowest unoccupied state:      -3.87308781eV
  |Highest occupied state:        -6.14894166eV

  Spin-orbit-coupled "band gap" along reciprocal space direction number:    1
  |Lowest unoccupied state:      -4.65380784eV
  |Highest occupied state:        -6.01490148eV


  Treating all k-points in band plot segment #   2, one-by-one:


  Calculating k-point    1 in band plot segment #   2:
  Overlap matrix is not singular
  | Lowest and highest eigenvalues :  0.4068E-02,  0.4032E+01
  Finished singularity check of overlap matrix
  | Time :     0.010 s
  Starting ELPA eigensolver
  Finished Cholesky decomposition
  | Time :     0.002 s
  Finished transformation to standard eigenproblem
  | Time :     0.004 s
  Finished solving standard eigenproblem
  | Time :     0.021 s
  Finished back-transformation of eigenvectors
  | Time :     0.002 s

  Scalar-relativistic "band gap" along reciprocal space direction number:    2
  |Lowest unoccupied state:      -3.87308781eV
  |Highest occupied state:        -6.14894166eV

  Spin-orbit-coupled "band gap" along reciprocal space direction number:    2
  |Lowest unoccupied state:      -4.65380784eV
  |Highest occupied state:        -6.01490148eV


  Treating all k-points in band plot segment #   3, one-by-one:


  Calculating k-point    1 in band plot segment #   3:
  Overlap matrix is not singular
  | Lowest and highest eigenvalues :  0.2385E-02,  0.6463E+01
  Finished singularity check of overlap matrix
  | Time :     0.009 s
  Starting ELPA eigensolver
  Finished Cholesky decomposition
  | Time :     0.003 s
  Finished transformation to standard eigenproblem
  | Time :     0.003 s
  Finished solving standard eigenproblem
  | Time :     0.022 s
  Finished back-transformation of eigenvectors
  | Time :     0.002 s

  Scalar-relativistic "band gap" along reciprocal space direction number:    3
  |Lowest unoccupied state:      -2.99098697eV
  |Highest occupied state:        -7.50778327eV

  Spin-orbit-coupled "band gap" along reciprocal space direction number:    3
  |Lowest unoccupied state:      -2.83278808eV
  |Highest occupied state:        -7.35657067eV


  Treating all k-points in band plot segment #   4, one-by-one:


  Calculating k-point    1 in band plot segment #   4:
  Overlap matrix is not singular
  | Lowest and highest eigenvalues :  0.3494E-02,  0.5280E+01
  Finished singularity check of overlap matrix
  | Time :     0.010 s
  Starting ELPA eigensolver
  Finished Cholesky decomposition
  | Time :     0.002 s
  Finished transformation to standard eigenproblem
  | Time :     0.004 s
  Finished solving standard eigenproblem
  | Time :     0.021 s
  Finished back-transformation of eigenvectors
  | Time :     0.002 s

  Scalar-relativistic "band gap" along reciprocal space direction number:    4
  |Lowest unoccupied state:      -3.38049581eV
  |Highest occupied state:        -6.81344840eV

  Spin-orbit-coupled "band gap" along reciprocal space direction number:    4
  |Lowest unoccupied state:      -3.76333543eV
  |Highest occupied state:        -6.65995529eV


  Treating all k-points in band plot segment #   5, one-by-one:


  Calculating k-point    1 in band plot segment #   5:
  Overlap matrix is not singular
  | Lowest and highest eigenvalues :  0.2995E-02,  0.5042E+01
  Finished singularity check of overlap matrix
  | Time :     0.009 s
  Starting ELPA eigensolver
  Finished Cholesky decomposition
  | Time :     0.003 s
  Finished transformation to standard eigenproblem
  | Time :     0.003 s
  Finished solving standard eigenproblem
  | Time :     0.022 s
  Finished back-transformation of eigenvectors
  | Time :     0.003 s

  Scalar-relativistic "band gap" along reciprocal space direction number:    5
  |Lowest unoccupied state:      -3.38049581eV
  |Highest occupied state:        -6.81344840eV

  Spin-orbit-coupled "band gap" along reciprocal space direction number:    5
  |Lowest unoccupied state:      -3.76333543eV
  |Highest occupied state:        -6.65995529eV


  Band Structure                                          :  max(cpu_time) wall_clock(cpu1)
  | Total Time                                            :          6.334            6.350
------------------------------------------------------------

------------------------------------------------------------------------------
  Final output of selected total energy values:

  The following output summarizes some interesting total energy values
  at the end of a run (AFTER all relaxation, molecular dynamics, etc.).

  | Total energy of the DFT / Hartree-Fock s.c.f. calculation      :       -1395332.022859095 eV
  | Final zero-broadening corrected energy (caution - metals only) :       -1395332.022859095 eV
  | Total energy after non-SC SOC correction (DO NOT USE)          :       -1395336.059996369 eV
  | For reference only, the value of 1 Hartree used in FHI-aims is :             27.211384500 eV
  | For reference only, the overall average (free atom contribution
  | + realspace contribution) of the electrostatic potential after
  | s.c.f. convergence is                                          :            -11.431423150 eV

  Before relying on these values, please be sure to understand exactly which
  total energy value is referred to by a given number. Different objects may
  all carry the same name 'total energy'. Definitions:

  Total energy of the DFT / Hartree-Fock s.c.f. calculation:
  | Note that this energy does not include ANY quantities calculated after the
  | s.c.f. cycle, in particular not ANY RPA, MP2, etc. many-body perturbation terms.

  Final zero-broadening corrected energy:
  | For metallic systems only, a broadening of the occupation numbers at the Fermi
  | level can be extrapolated back to zero broadening by an electron-gas inspired
  | formula. For all systems that are not real metals, this value can be
  | meaningless and should be avoided.

------------------------------------------------------------------------------
  Methods described in the following list of references were used in this FHI-aims run.
  If you publish the results, please make sure to cite these reference if they apply.
  FHI-aims is an academic code, and for our developers (often, Ph.D. students
  and postdocs), scientific credit in the community is essential.
  Thank you for helping us!

  For any use of FHI-aims, please cite:

    Volker Blum, Ralf Gehrke, Felix Hanke, Paula Havu, Ville Havu,
    Xinguo Ren, Karsten Reuter, and Matthias Scheffler
    'Ab initio molecular simulations with numeric atom-centered orbitals'
    Computer Physics Communications 180, 2175-2196 (2009)
    http://dx.doi.org/10.1016/j.cpc.2009.06.022


  For Hartree-Fock, hybrid functionals, or many-body perturbation theory used in your run, please cite:

    Xinguo Ren, Patrick Rinke, Volker Blum, Juergen Wieferink, Alex Tkatchenko,
    Andrea Sanfilippo, Karsten Reuter, and Matthias Scheffler,
    'Resolution-of-identity approach to Hartree-Fock, hybrid density functionals,
    RPA, MP2, and GW with numeric atom-centered orbital basis functions'
    New Journal of Physics 14, 053020 (2012).
    http://dx.doi.org/10.1088/1367-2630/14/5/053020


  The provided symmetry information was generated with SPGlib:

    Atsushi Togo, Yusuke Seto, Dimitar Pashov
    SPGlib 1.7.3 obtained from http://spglib.sourceforge.net
    Copyright (C) 2008 Atsushi Togo


  For second-variational spin-orbit coupling used in your run, please cite:

    William P. Huhn and Volker Blum,
    'One-hundred-three compound band-structure benchmark of post-self-consistent'
    'spin-orbit coupling treatments in density functional theory'
    Phys. Rev. Materials 1, 033803 (2017).


  The ELSI infrastructure was used in your run to solve the Kohn-Sham electronic structure.
  Please check out http://elsi-interchange.org to learn more.
  If scalability is important for your project, please acknowledge ELSI by citing:

    V. W-z. Yu, F. Corsetti, A. Garcia, W. P. Huhn, M. Jacquelin, W. Jia,
    B. Lange, L. Lin, J. Lu, W. Mi, A. Seifitokaldani, A. Vazquez-Mayagoitia,
    C. Yang, H. Yang, and V. Blum
    'ELSI: A unified software interface for Kohn-Sham electronic structure solvers'
    Computer Physics Communications 222, 267-285 (2018).
    http://dx.doi.org/10.1016/j.cpc.2017.09.007


  For the real-space grid partitioning and parallelization used in this calculation, please cite:

    Ville Havu, Volker Blum, Paula Havu, and Matthias Scheffler,
    'Efficient O(N) integration for all-electron electronic structure calculation'
    'using numerically tabulated basis functions'
    Journal of Computational Physics 228, 8367-8379 (2009).
    http://dx.doi.org/10.1016/j.jcp.2009.08.008


  The high-level electronic structure method used in your calculation
  employed our efficient localized resolution of identity for the Coulomb operator.
  Some calculations, especially large-scale hybrid density functional theory,
  are only possible thanks to this development. For this feature, please cite:

    Arvid Ihrig, Juergen Wieferink, Igor Ying Zhang, Matti Ropo, Xinguo Ren,
    Patrick Rinke, Matthias Scheffler, and Volker Blum,
    'Accurate localized resolution of identity approach for linear-scaling
    hybrid density functionals and for many-body perturbation theory'
    New Journal of Physics 117, 093020 (2015).
    http://dx.doi.org/10.1088/1367-2630/17/9/093020

  Of course, there are many other important community references, e.g., those cited in the
  above references. Our list is limited to references that describe implementations in the
  FHI-aims code. The reason is purely practical (length of this list) - please credit others as well.

 *********************************************************************
   Your are running FHI-aims on many cores. To achieve optimal
   performance for your particular architecture, it might be necessary
   to tune the following compilation and calculation settings:
    * Choosing the right Scalapack and MPI Libraries for your
       architecture is essential. If in doubt, refer to the
       documentation or the sysadmin of your supercomputer.
    * Please review our documentation of Makefile choices, particularly
       for ELPA, in the manual.
    * Some of the following FHI-aims keywords or combination thereof
       may be helpful:
        - FHI-aims setting: collect_eigenvectors .false.
        - FHI-aims setting: use_local_index .true.
        - FHI-aims setting: load_balancing .true.
        - FHI-aims setting: use_alltoall .false.
        - FHI-aims setting: elpa_settings two_step_solver
   Be mindful that the usefulness of these keywords can depend on your
   actual run and on the actual computer you are using. Please check
   their description in the manual and perform specific benchmarks to
   determine what is optimal for your computer. More detailed
   information and examples can be found at:
 http://aimsclub.fhi-berlin.mpg.de/wiki/index.php/Large_scale_settings
 *********************************************************************

------------------------------------------------------------
          Leaving FHI-aims.
          Date     :  20210909, Time     :  125807.791

          Computational steps:
          | Number of self-consistency cycles          :           17
          | Number of SCF (re)initializations          :            1

          Detailed time accounting                     :  max(cpu_time)    wall_clock(cpu1)
          | Total time                                 :      578.842 s         581.135 s
          | Preparation time                           :        0.811 s           1.230 s
          | Boundary condition initalization           :        0.089 s           0.092 s
          | Grid partitioning                          :        0.469 s           0.498 s
          | Preloading free-atom quantities on grid    :        0.030 s           0.032 s
          | Free-atom superposition energy             :        0.003 s           0.003 s
          | Total time for integrations                :        0.803 s           0.829 s
          | Product basis setup: Total time            :       46.044 s          46.049 s
          | Total time evaluating exchange matrix      :      518.366 s         518.580 s
          | Total time for solution of K.-S. equations :        1.650 s           1.787 s
          | Total time for density update              :        1.058 s           1.100 s
          | Total time for mixing                      :        1.232 s           0.519 s
          | Total time for Hartree multipole update    :        0.136 s           0.134 s
          | Total time for Hartree multipole sum       :        0.609 s           0.611 s
          | Total time for total energy evaluation     :        0.046 s           0.050 s
          | Total time for scaled ZORA corrections     :        0.000 s           0.000 s
          | Total time for perturbative SOC            :        0.357 s           0.357 s
          | Total time for band structures, DOS        :        6.341 s           6.350 s

          Partial memory accounting:
          | Residual value for overall tracked memory usage across tasks:     0.000000 MB (should be 0.000000 MB)
          | Peak values for overall tracked memory usage:
          |   Minimum:       33.883 MB (on task  925 after allocating potential_shell)
          |   Maximum:       66.268 MB (on task  365 after allocating tmp2_aux)
          |   Average:       47.205 MB
          | Largest tracked array allocation:
          |   Minimum:       13.740 MB (aux_mat on task  104)
          |   Maximum:       22.102 MB (dm_cols_mem on task  362)
          |   Average:       18.064 MB
          Note:  These values currently only include a subset of arrays which are explicitly tracked.
          The "true" memory usage will be greater.

          Have a nice day.
------------------------------------------------------------
