
:LABEL1: Calculations in /mnt/lnec/users/sol/pardini/TEM/nuove_convergenze_aprile_2014/wien/Vacancy/ok
:LABEL2: on node096 at Sat Apr 12 14:34:40 CEST 2014
:LABEL3: using WIEN2k_12.1 (Release 22/7/2012) in /mnt/lnec/users/sol/pardini/Wien2k


            ---------
:ITE001:  1. ITERATION
            ---------

:NATO :   13 INDEPENDENT AND   49 TOTAL ATOMS IN UNITCELL
       SUBSTANCE: graphene                                                    

       LATTICE                      = H   
:POT  : POTENTIAL OPTION   19
:LAT  : LATTICE CONSTANTS= 23.23903 23.23903 37.79454
:VOL  : UNIT CELL VOLUME =   17676.47510
       MODE OF CALCULATION IS       = RELA
       NON-SPINPOLARIZED CALCULATION
:IFFT  : FFT-parameters:  240  240  400 Factor: 2.00
       ATOMNUMBER=  1 C 1        VCOUL-ZERO = -0.13121E+01
:EFG001:                        EFG         =     1.37001   *10**21  V / m**2
                               V20  TOT/SRF=    -0.22147    -0.30530
                               V22  TOT/SRF=    -1.24214    -1.70995
                               V22M TOT/SRF=     0.00000     0.00000
                               V21  TOT/SRF=     0.00000     0.00000
                               V21M TOT/SRF=     0.00000     0.00000

             -1.11428    0.00000    0.00000       -1.11428    0.00000    0.00000
              0.00000    1.37001    0.00000        0.00000    1.37001    0.00000
              0.00000    0.00000   -0.25573        0.00000    0.00000   -0.25573

         MAIN DIRECTIONS OF THE EFG   1.0000  0.0000  0.0000
                                      0.0000  1.0000  0.0000
                                      0.0000  0.0000  1.0000
:ANG001:  ANGLE WITH OLD X-AXIS =         0.0

:ETA001:                         ASYMM. ETA =     0.62668


       ATOMNUMBER=  2 C 2        VCOUL-ZERO = -0.14236E+01
:EFG002:                        EFG         =    -1.56316   *10**21  V / m**2
                               V20  TOT/SRF=    -1.35373    -1.86553
                               V22  TOT/SRF=    -0.10083    -0.13669
                               V22M TOT/SRF=    -0.00771    -0.01003
                               V21  TOT/SRF=     0.00000     0.00000
                               V21M TOT/SRF=     0.00000     0.00000

              0.68075   -0.00771    0.00000        0.68046    0.00000    0.00000
             -0.00771    0.88241    0.00000        0.00000    0.88270    0.00000
              0.00000    0.00000   -1.56316        0.00000    0.00000   -1.56316

         MAIN DIRECTIONS OF THE EFG   1.0000 -0.0382  0.0000
                                      0.0382  1.0000  0.0000
                                      0.0000  0.0000  1.0000
:ANG002:  ANGLE WITH OLD X-AXIS =         2.2

:ETA002:                         ASYMM. ETA =     0.12938


       ATOMNUMBER=  3 C 3        VCOUL-ZERO = -0.14214E+01
:EFG003:                        EFG         =    -1.54892   *10**21  V / m**2
                               V20  TOT/SRF=    -1.34141    -1.84915
                               V22  TOT/SRF=    -0.05602    -0.07561
                               V22M TOT/SRF=     0.01970     0.02663
                               V21  TOT/SRF=     0.00000     0.00000
                               V21M TOT/SRF=     0.00000     0.00000

              0.71845    0.01970    0.00000        0.71508    0.00000    0.00000
              0.01970    0.83048    0.00000        0.00000    0.83384    0.00000
              0.00000    0.00000   -1.54892        0.00000    0.00000   -1.54892

         MAIN DIRECTIONS OF THE EFG   1.0000  0.1707  0.0000
                                     -0.1707  1.0000  0.0000
                                      0.0000  0.0000  1.0000
:ANG003:  ANGLE WITH OLD X-AXIS =         9.7

:ETA003:                         ASYMM. ETA =     0.07667


       ATOMNUMBER=  4 C 4        VCOUL-ZERO = -0.14266E+01
:EFG004:                        EFG         =    -1.57269   *10**21  V / m**2
                               V20  TOT/SRF=    -1.36199    -1.87683
                               V22  TOT/SRF=    -0.01102    -0.01503
                               V22M TOT/SRF=     0.01582     0.02146
                               V21  TOT/SRF=     0.00000     0.00000
                               V21M TOT/SRF=     0.00000     0.00000

              0.77533    0.01582    0.00000        0.76707    0.00000    0.00000
              0.01582    0.79736    0.00000        0.00000    0.80562    0.00000
              0.00000    0.00000   -1.57269        0.00000    0.00000   -1.57269

         MAIN DIRECTIONS OF THE EFG   1.0000  0.5222  0.0000
                                     -0.5222  1.0000  0.0000
                                      0.0000  0.0000  1.0000
:ANG004:  ANGLE WITH OLD X-AXIS =        27.6

:ETA004:                         ASYMM. ETA =     0.02451


       ATOMNUMBER=  5 C 5        VCOUL-ZERO = -0.14263E+01
:EFG005:                        EFG         =    -1.57088   *10**21  V / m**2
                               V20  TOT/SRF=     0.68866     0.94883
                               V22  TOT/SRF=    -1.17329    -1.61696
                               V22M TOT/SRF=     0.00000     0.00000
                               V21  TOT/SRF=     0.00000     0.00000
                               V21M TOT/SRF=     0.00000     0.00000

             -1.57088    0.00000    0.00000       -1.57088    0.00000    0.00000
              0.00000    0.77569    0.00000        0.00000    0.77569    0.00000
              0.00000    0.00000    0.79519        0.00000    0.00000    0.79519

         MAIN DIRECTIONS OF THE EFG   1.0000  0.0000  0.0000
                                      0.0000  1.0000  0.0000
                                      0.0000  0.0000  1.0000
:ANG005:  ANGLE WITH OLD X-AXIS =         0.0

:ETA005:                         ASYMM. ETA =     0.01242


       ATOMNUMBER=  6 C 6        VCOUL-ZERO = -0.14316E+01
:EFG006:                        EFG         =    -1.59671   *10**21  V / m**2
                               V20  TOT/SRF=     0.71992     0.99165
                               V22  TOT/SRF=    -1.18107    -1.62701
                               V22M TOT/SRF=     0.00000     0.00000
                               V21  TOT/SRF=     0.00000     0.00000
                               V21M TOT/SRF=     0.00000     0.00000

             -1.59671    0.00000    0.00000       -1.59671    0.00000    0.00000
              0.00000    0.76542    0.00000        0.00000    0.76542    0.00000
              0.00000    0.00000    0.83129        0.00000    0.00000    0.83129

         MAIN DIRECTIONS OF THE EFG   1.0000  0.0000  0.0000
                                      0.0000  1.0000  0.0000
                                      0.0000  0.0000  1.0000
:ANG006:  ANGLE WITH OLD X-AXIS =         0.0

:ETA006:                         ASYMM. ETA =     0.04125


       ATOMNUMBER=  7 C 7        VCOUL-ZERO = -0.14305E+01
:EFG007:                        EFG         =    -1.59047   *10**21  V / m**2
                               V20  TOT/SRF=     0.67332     0.92802
                               V22  TOT/SRF=    -1.20173    -1.65533
                               V22M TOT/SRF=     0.00000     0.00000
                               V21  TOT/SRF=     0.00000     0.00000
                               V21M TOT/SRF=     0.00000     0.00000

             -1.59047    0.00000    0.00000       -1.59047    0.00000    0.00000
              0.00000    0.81298    0.00000        0.00000    0.81298    0.00000
              0.00000    0.00000    0.77748        0.00000    0.00000    0.77748

         MAIN DIRECTIONS OF THE EFG   1.0000  0.0000  0.0000
                                      0.0000  1.0000  0.0000
                                      0.0000  0.0000  1.0000
:ANG007:  ANGLE WITH OLD X-AXIS =         0.0

:ETA007:                         ASYMM. ETA =     0.02232


       ATOMNUMBER=  8 C 8        VCOUL-ZERO = -0.14282E+01
:EFG008:                        EFG         =    -1.57983   *10**21  V / m**2
                               V20  TOT/SRF=     0.70577     0.97189
                               V22  TOT/SRF=    -1.17235    -1.61569
                               V22M TOT/SRF=     0.00000     0.00000
                               V21  TOT/SRF=     0.00000     0.00000
                               V21M TOT/SRF=     0.00000     0.00000

             -1.57983    0.00000    0.00000       -1.57983    0.00000    0.00000
              0.00000    0.76488    0.00000        0.00000    0.76488    0.00000
              0.00000    0.00000    0.81495        0.00000    0.00000    0.81495

         MAIN DIRECTIONS OF THE EFG   1.0000  0.0000  0.0000
                                      0.0000  1.0000  0.0000
                                      0.0000  0.0000  1.0000
:ANG008:  ANGLE WITH OLD X-AXIS =         0.0

:ETA008:                         ASYMM. ETA =     0.03170


       ATOMNUMBER=  9 C 9        VCOUL-ZERO = -0.14273E+01
:EFG009:                        EFG         =    -1.57538   *10**21  V / m**2
                               V20  TOT/SRF=     0.67856     0.93515
                               V22  TOT/SRF=    -1.18361    -1.63091
                               V22M TOT/SRF=     0.00000     0.00000
                               V21  TOT/SRF=     0.00000     0.00000
                               V21M TOT/SRF=     0.00000     0.00000

             -1.57538    0.00000    0.00000       -1.57538    0.00000    0.00000
              0.00000    0.79184    0.00000        0.00000    0.79184    0.00000
              0.00000    0.00000    0.78354        0.00000    0.00000    0.78354

         MAIN DIRECTIONS OF THE EFG   1.0000  0.0000  0.0000
                                      0.0000  1.0000  0.0000
                                      0.0000  0.0000  1.0000
:ANG009:  ANGLE WITH OLD X-AXIS =         0.0

:ETA009:                         ASYMM. ETA =     0.00527


       ATOMNUMBER= 10 C 10       VCOUL-ZERO = -0.14278E+01
:EFG010:                        EFG         =    -1.57812   *10**21  V / m**2
                               V20  TOT/SRF=     0.68443     0.94306
                               V22  TOT/SRF=    -1.18297    -1.63002
                               V22M TOT/SRF=     0.00000     0.00000
                               V21  TOT/SRF=     0.00000     0.00000
                               V21M TOT/SRF=     0.00000     0.00000

             -1.57812    0.00000    0.00000       -1.57812    0.00000    0.00000
              0.00000    0.78781    0.00000        0.00000    0.78781    0.00000
              0.00000    0.00000    0.79031        0.00000    0.00000    0.79031

         MAIN DIRECTIONS OF THE EFG   1.0000  0.0000  0.0000
                                      0.0000  1.0000  0.0000
                                      0.0000  0.0000  1.0000
:ANG010:  ANGLE WITH OLD X-AXIS =         0.0

:ETA010:                         ASYMM. ETA =     0.00159


       ATOMNUMBER= 11 C 11       VCOUL-ZERO = -0.14281E+01
:EFG011:                        EFG         =    -1.57941   *10**21  V / m**2
                               V20  TOT/SRF=     0.68326     0.94151
                               V22  TOT/SRF=    -1.18493    -1.63266
                               V22M TOT/SRF=     0.00000     0.00000
                               V21  TOT/SRF=     0.00000     0.00000
                               V21M TOT/SRF=     0.00000     0.00000

             -1.57941    0.00000    0.00000       -1.57941    0.00000    0.00000
              0.00000    0.79046    0.00000        0.00000    0.79046    0.00000
              0.00000    0.00000    0.78896        0.00000    0.00000    0.78896

         MAIN DIRECTIONS OF THE EFG   1.0000  0.0000  0.0000
                                      0.0000  1.0000  0.0000
                                      0.0000  0.0000  1.0000
:ANG011:  ANGLE WITH OLD X-AXIS =         0.0

:ETA011:                         ASYMM. ETA =     0.00095


       ATOMNUMBER= 12 C 12       VCOUL-ZERO = -0.14279E+01
:EFG012:                        EFG         =    -1.57847   *10**21  V / m**2
                               V20  TOT/SRF=    -1.36700    -1.88359
                               V22  TOT/SRF=     0.00704     0.00945
                               V22M TOT/SRF=     0.00922     0.01250
                               V21  TOT/SRF=     0.00000     0.00000
                               V21M TOT/SRF=     0.00000     0.00000

              0.79628    0.00922    0.00000        0.80084    0.00000    0.00000
              0.00922    0.78219    0.00000        0.00000    0.77763    0.00000
              0.00000    0.00000   -1.57847        0.00000    0.00000   -1.57847

         MAIN DIRECTIONS OF THE EFG   1.0000 -0.4945  0.0000
                                      0.4945  1.0000  0.0000
                                      0.0000  0.0000  1.0000
:ANG012:  ANGLE WITH OLD X-AXIS =        26.3

:ETA012:                         ASYMM. ETA =     0.01471


       ATOMNUMBER= 13 C 13       VCOUL-ZERO = -0.14275E+01
:EFG013:                        EFG         =    -1.57652   *10**21  V / m**2
                               V20  TOT/SRF=    -1.36531    -1.88132
                               V22  TOT/SRF=     0.00000     0.00000
                               V22M TOT/SRF=     0.00000     0.00000
                               V21  TOT/SRF=     0.00000     0.00000
                               V21M TOT/SRF=     0.00000     0.00000

              0.78826    0.00000    0.00000        0.78826    0.00000    0.00000
              0.00000    0.78826    0.00000        0.00000    0.78826    0.00000
              0.00000    0.00000   -1.57652        0.00000    0.00000   -1.57652

         MAIN DIRECTIONS OF THE EFG   1.0000  0.0000  0.0000
                                      0.0000  1.0000  0.0000
                                      0.0000  0.0000  1.0000
:ANG013:  ANGLE WITH OLD X-AXIS =         0.0

:ETA013:                         ASYMM. ETA =     0.00000


     HELLMANN-FEYNMAN-FORCE IN mRy/a.u. = |F|  Fx       Fy             Fz
:FHF001:   1.ATOM    771.717212290      0.000000000      0.000000000    771.717212290

     HELLMANN-FEYNMAN-FORCE IN mRy/a.u. = |F|  Fx       Fy             Fz
:FHF002:   2.ATOM     39.173747742     37.949153980     -9.718241835      0.000000000

     HELLMANN-FEYNMAN-FORCE IN mRy/a.u. = |F|  Fx       Fy             Fz
:FHF003:   3.ATOM     47.225118674    -44.854382181    -14.774851367      0.000000000

     HELLMANN-FEYNMAN-FORCE IN mRy/a.u. = |F|  Fx       Fy             Fz
:FHF004:   4.ATOM      9.416820007      1.282458032      9.329083580      0.000000000

     HELLMANN-FEYNMAN-FORCE IN mRy/a.u. = |F|  Fx       Fy             Fz
:FHF005:   5.ATOM      4.330337951      0.000000000      0.000000000     -4.330337951

     HELLMANN-FEYNMAN-FORCE IN mRy/a.u. = |F|  Fx       Fy             Fz
:FHF006:   6.ATOM      2.212162287      0.000000000      0.000000000      2.212162287

     HELLMANN-FEYNMAN-FORCE IN mRy/a.u. = |F|  Fx       Fy             Fz
:FHF007:   7.ATOM     13.187415781      0.000000000      0.000000000     13.187415781

     HELLMANN-FEYNMAN-FORCE IN mRy/a.u. = |F|  Fx       Fy             Fz
:FHF008:   8.ATOM     19.111148700      0.000000000      0.000000000     19.111148700

     HELLMANN-FEYNMAN-FORCE IN mRy/a.u. = |F|  Fx       Fy             Fz
:FHF009:   9.ATOM      3.103682547      0.000000000      0.000000000     -3.103682547

     HELLMANN-FEYNMAN-FORCE IN mRy/a.u. = |F|  Fx       Fy             Fz
:FHF010:  10.ATOM      0.330417434      0.000000000      0.000000000      0.330417434

     HELLMANN-FEYNMAN-FORCE IN mRy/a.u. = |F|  Fx       Fy             Fz
:FHF011:  11.ATOM      2.792251758      0.000000000      0.000000000      2.792251758

     HELLMANN-FEYNMAN-FORCE IN mRy/a.u. = |F|  Fx       Fy             Fz
:FHF012:  12.ATOM      9.539855198      7.973027260     -5.238289178      0.000000000

     HELLMANN-FEYNMAN-FORCE IN mRy/a.u. = |F|  Fx       Fy             Fz
:FHF013:  13.ATOM      0.000000000      0.000000000      0.000000000      0.000000000

:FIT001: LUSE= 13 SIGMA OF V-XC FIT FOR ATOM  1  0.3824526E-03
:FIT001: LUSE= 13 SIGMA OF V-XC FIT FOR ATOM  1  0.3824526E-03
:FIT002: LUSE= 13 SIGMA OF V-XC FIT FOR ATOM  2  0.5391068E-03
:FIT002: LUSE= 13 SIGMA OF V-XC FIT FOR ATOM  2  0.5391068E-03
:FIT003: LUSE= 13 SIGMA OF V-XC FIT FOR ATOM  3  0.6539665E-03
:FIT003: LUSE= 13 SIGMA OF V-XC FIT FOR ATOM  3  0.6539665E-03
:FIT004: LUSE= 13 SIGMA OF V-XC FIT FOR ATOM  4  0.7420544E-03
:FIT004: LUSE= 13 SIGMA OF V-XC FIT FOR ATOM  4  0.7420544E-03
:FIT005: LUSE= 13 SIGMA OF V-XC FIT FOR ATOM  5  0.5233482E-03
:FIT005: LUSE= 13 SIGMA OF V-XC FIT FOR ATOM  5  0.5233482E-03
:FIT006: LUSE= 13 SIGMA OF V-XC FIT FOR ATOM  6  0.4999104E-03
:FIT006: LUSE= 13 SIGMA OF V-XC FIT FOR ATOM  6  0.4999104E-03
:FIT007: LUSE= 13 SIGMA OF V-XC FIT FOR ATOM  7  0.7283594E-03
:FIT007: LUSE= 13 SIGMA OF V-XC FIT FOR ATOM  7  0.7283594E-03
:FIT008: LUSE= 13 SIGMA OF V-XC FIT FOR ATOM  8  0.5157774E-03
:FIT008: LUSE= 13 SIGMA OF V-XC FIT FOR ATOM  8  0.5157774E-03
:FIT009: LUSE= 13 SIGMA OF V-XC FIT FOR ATOM  9  0.7213486E-03
:FIT009: LUSE= 13 SIGMA OF V-XC FIT FOR ATOM  9  0.7213486E-03
:FIT010: LUSE= 13 SIGMA OF V-XC FIT FOR ATOM 10  0.5740337E-03
:FIT010: LUSE= 13 SIGMA OF V-XC FIT FOR ATOM 10  0.5740337E-03
:FIT011: LUSE= 13 SIGMA OF V-XC FIT FOR ATOM 11  0.7190922E-03
:FIT011: LUSE= 13 SIGMA OF V-XC FIT FOR ATOM 11  0.7190922E-03
:FIT012: LUSE= 13 SIGMA OF V-XC FIT FOR ATOM 12  0.5892464E-03
:FIT012: LUSE= 13 SIGMA OF V-XC FIT FOR ATOM 12  0.5892464E-03
:FIT013: LUSE= 13 SIGMA OF V-XC FIT FOR ATOM 13  0.5504768E-03
:FIT013: LUSE= 13 SIGMA OF V-XC FIT FOR ATOM 13  0.5504768E-03
:DEN  : DENSITY INTEGRAL  =         -1539.52791166   (Ry)
       ELS_POTENTIAL_AT Z=0 and Z=0.5:  -3.08249   0.15190
       ELS_POTENTIAL_AT Y=0 and Y=0.5:   0.00000   0.00000
:VZERO:v0,v0c,v0x  -4.29169  -3.08249  -1.20920 v5,v5c,v5x   0.12611   0.15190  -0.02579
:VZERY:v0,v0c,v0x  -0.18100   0.00000  -0.18100 v5,v5c,v5x  -0.18100   0.00000  -0.18100
:VZERX:v0,v0c,v0x  -0.28814  -0.09183  -0.19631 v5,v5c,v5x  -0.12478   0.04867  -0.17344

          ATOMIC SPHERE DEPENDENT PARAMETERS FOR ATOM  C 1       
:e__0001: OVERALL ENERGY PARAMETER IS    0.3000
          OVERALL BASIS SET ON ATOM IS LAPW
:E0_0001: E( 0)=   -0.7700   E(BOTTOM)=   -2.887   E(TOP)= -200.000  1 -1   264
             APW+lo
:E0_0001: E( 0)=    0.3000
             LOCAL ORBITAL
:E1_0001: E( 1)=    0.3000
             APW+lo

          ATOMIC SPHERE DEPENDENT PARAMETERS FOR ATOM  C 2       
:e__0002: OVERALL ENERGY PARAMETER IS    0.3000
          OVERALL BASIS SET ON ATOM IS LAPW
:E0_0002: E( 0)=   -0.7700   E(BOTTOM)=   -2.993   E(TOP)= -200.000  1 -1   277
             APW+lo
:E0_0002: E( 0)=    0.3000
             LOCAL ORBITAL
:E1_0002: E( 1)=    0.3000
             APW+lo

          ATOMIC SPHERE DEPENDENT PARAMETERS FOR ATOM  C 3       
:e__0003: OVERALL ENERGY PARAMETER IS    0.3000
          OVERALL BASIS SET ON ATOM IS LAPW
:E0_0003: E( 0)=   -0.7700   E(BOTTOM)=   -2.991   E(TOP)= -200.000  1 -1   274
             APW+lo
:E0_0003: E( 0)=    0.3000
             LOCAL ORBITAL
:E1_0003: E( 1)=    0.3000
             APW+lo

          ATOMIC SPHERE DEPENDENT PARAMETERS FOR ATOM  C 4       
:e__0004: OVERALL ENERGY PARAMETER IS    0.3000
          OVERALL BASIS SET ON ATOM IS LAPW
:E0_0004: E( 0)=   -0.7700   E(BOTTOM)=   -2.996   E(TOP)= -200.000  1 -1   275
             APW+lo
:E0_0004: E( 0)=    0.3000
             LOCAL ORBITAL
:E1_0004: E( 1)=    0.3000
             APW+lo

          ATOMIC SPHERE DEPENDENT PARAMETERS FOR ATOM  C 5       
:e__0005: OVERALL ENERGY PARAMETER IS    0.3000
          OVERALL BASIS SET ON ATOM IS LAPW
:E0_0005: E( 0)=   -0.7700   E(BOTTOM)=   -2.996   E(TOP)= -200.000  1 -1   276
             APW+lo
:E0_0005: E( 0)=    0.3000
             LOCAL ORBITAL
:E1_0005: E( 1)=    0.3000
             APW+lo

          ATOMIC SPHERE DEPENDENT PARAMETERS FOR ATOM  C 6       
:e__0006: OVERALL ENERGY PARAMETER IS    0.3000
          OVERALL BASIS SET ON ATOM IS LAPW
:E0_0006: E( 0)=   -0.7700   E(BOTTOM)=   -3.001   E(TOP)= -200.000  1 -1   274
             APW+lo
:E0_0006: E( 0)=    0.3000
             LOCAL ORBITAL
:E1_0006: E( 1)=    0.3000
             APW+lo

          ATOMIC SPHERE DEPENDENT PARAMETERS FOR ATOM  C 7       
:e__0007: OVERALL ENERGY PARAMETER IS    0.3000
          OVERALL BASIS SET ON ATOM IS LAPW
:E0_0007: E( 0)=   -0.7700   E(BOTTOM)=   -3.000   E(TOP)= -200.000  1 -1   275
             APW+lo
:E0_0007: E( 0)=    0.3000
             LOCAL ORBITAL
:E1_0007: E( 1)=    0.3000
             APW+lo

          ATOMIC SPHERE DEPENDENT PARAMETERS FOR ATOM  C 8       
:e__0008: OVERALL ENERGY PARAMETER IS    0.3000
          OVERALL BASIS SET ON ATOM IS LAPW
:E0_0008: E( 0)=   -0.7700   E(BOTTOM)=   -2.998   E(TOP)= -200.000  1 -1   276
             APW+lo
:E0_0008: E( 0)=    0.3000
             LOCAL ORBITAL
:E1_0008: E( 1)=    0.3000
             APW+lo

          ATOMIC SPHERE DEPENDENT PARAMETERS FOR ATOM  C 9       
:e__0009: OVERALL ENERGY PARAMETER IS    0.3000
          OVERALL BASIS SET ON ATOM IS LAPW
:E0_0009: E( 0)=   -0.7700   E(BOTTOM)=   -2.997   E(TOP)= -200.000  1 -1   278
             APW+lo
:E0_0009: E( 0)=    0.3000
             LOCAL ORBITAL
:E1_0009: E( 1)=    0.3000
             APW+lo

          ATOMIC SPHERE DEPENDENT PARAMETERS FOR ATOM  C 10      
:e__0010: OVERALL ENERGY PARAMETER IS    0.3000
          OVERALL BASIS SET ON ATOM IS LAPW
:E0_0010: E( 0)=   -0.7700   E(BOTTOM)=   -2.997   E(TOP)= -200.000  1 -1   275
             APW+lo
:E0_0010: E( 0)=    0.3000
             LOCAL ORBITAL
:E1_0010: E( 1)=    0.3000
             APW+lo

          ATOMIC SPHERE DEPENDENT PARAMETERS FOR ATOM  C 11      
:e__0011: OVERALL ENERGY PARAMETER IS    0.3000
          OVERALL BASIS SET ON ATOM IS LAPW
:E0_0011: E( 0)=   -0.7700   E(BOTTOM)=   -2.998   E(TOP)= -200.000  1 -1   277
             APW+lo
:E0_0011: E( 0)=    0.3000
             LOCAL ORBITAL
:E1_0011: E( 1)=    0.3000
             APW+lo

          ATOMIC SPHERE DEPENDENT PARAMETERS FOR ATOM  C 12      
:e__0012: OVERALL ENERGY PARAMETER IS    0.3000
          OVERALL BASIS SET ON ATOM IS LAPW
:E0_0012: E( 0)=   -0.7700   E(BOTTOM)=   -2.997   E(TOP)= -200.000  1 -1   276
             APW+lo
:E0_0012: E( 0)=    0.3000
             LOCAL ORBITAL
:E1_0012: E( 1)=    0.3000
             APW+lo

          ATOMIC SPHERE DEPENDENT PARAMETERS FOR ATOM  C 13      
:e__0013: OVERALL ENERGY PARAMETER IS    0.3000
          OVERALL BASIS SET ON ATOM IS LAPW
:E0_0013: E( 0)=   -0.7700   E(BOTTOM)=   -2.997   E(TOP)= -200.000  1 -1   278
             APW+lo
:E0_0013: E( 0)=    0.3000
             LOCAL ORBITAL
:E1_0013: E( 1)=    0.3000
             APW+lo

       K=   0.00000   0.00000   0.00000            1
:RKM  : MATRIX SIZE 9174LOs: 245  RKM= 4.09  WEIGHT= 1.00  PGR:    
       EIGENVALUES ARE:
:EIG00001:      -1.8879567   -1.8259598   -1.8246154   -1.8246154   -1.8195084
:EIG00006:      -1.8195084   -1.7799887   -1.6901454   -1.6901454   -1.6858531
:EIG00011:      -1.6807514   -1.6807514   -1.6602331   -1.6265091   -1.6210831
:EIG00016:      -1.6210831   -1.6119142   -1.6119142   -1.5488990   -1.4684821
:EIG00021:      -1.4684821   -1.4651534   -1.4588274   -1.4588274   -1.4212720
:EIG00026:      -1.3891960   -1.3891960   -1.3891813   -1.3690016   -1.3690016
:EIG00031:      -1.3265150   -1.2963940   -1.2933316   -1.2933316   -1.2666260
:EIG00036:      -1.2666260   -1.1824647   -1.1232576   -1.1229921   -1.1229921
:EIG00041:      -1.1176091   -1.1176091   -1.1119255   -1.1035082   -1.1035082
:EIG00046:      -1.1021309   -1.0665776   -1.0665776   -1.0126480   -1.0019983
 
:EIG00051:      -0.9964011   -0.9964011   -0.9743132   -0.9743132   -0.9493579
:EIG00056:      -0.9224765   -0.9224620   -0.9219594   -0.9219594   -0.9200899
:EIG00061:      -0.9166397   -0.9166397   -0.9115573   -0.9115573   -0.9093556
:EIG00066:      -0.8457729   -0.8447119   -0.8447119   -0.8409493   -0.8409493
:EIG00071:      -0.8349704   -0.8349704   -0.8017443   -0.7964758   -0.7925811
:EIG00076:      -0.7925811   -0.7898045   -0.6925716   -0.6925716   -0.6907586
:EIG00081:      -0.6907586   -0.6865090   -0.6827327   -0.6827327   -0.6624384
:EIG00086:      -0.6330453   -0.6272700   -0.6244305   -0.6244305   -0.6158894
:EIG00091:      -0.6158894   -0.5530353   -0.4754722   -0.4754722   -0.4733801
:EIG00096:      -0.4660578   -0.4660578   -0.3762937   -0.3161635   -0.3161635
 
:EIG00101:      -0.2695073   -0.2695073   -0.2692396   -0.2526648   -0.2526648
:EIG00106:      -0.1993858   -0.1296188   -0.1296188   -0.1272491   -0.1102339
:EIG00111:      -0.1102339   -0.0615563   -0.0061653   -0.0031358   -0.0031358
:EIG00116:       0.0160017    0.0160017    0.0303473    0.1116747    0.1193390
:EIG00121:       0.1196899    0.1196899    0.1216133    0.1216133    0.1275340
:EIG00126:       0.1277491    0.1277491    0.1348953    0.1403160    0.1403160
:EIG00131:       0.1416905    0.1555609    0.1573095    0.1826005    0.1826005
:EIG00136:       0.1904128    0.1904128    0.1907698    0.2050695    0.2062466
:EIG00141:       0.2062466    0.2064692    0.2065779    0.2065779    0.2158661
:EIG00146:       0.2269379    0.2353444    0.2380320    0.2380320    0.2386259
 
:EIG00151:       0.2386259    0.2386947    0.2405714    0.2423506    0.2423506
:EIG00156:       0.2664787    0.2664787    0.2668004    0.2777560    0.2777560
:EIG00161:       0.3008016    0.3020297    0.3020297    0.3023361    0.3023361
:EIG00166:       0.3042601    0.3052476    0.3052870    0.3052870    0.3088047
:EIG00171:       0.3088047    0.3161924    0.3310849    0.3311813    0.3311813
:EIG00176:       0.3315668    0.3315668    0.3373202    0.3578832    0.3821736
:EIG00181:       0.3829583    0.3829583    0.3868397    0.3868397    0.3904825
:EIG00186:       0.3906961    0.3909673    0.3909673    0.3910579    0.3918424
:EIG00191:       0.3919338    0.3919338    0.3973495    0.3979233    0.3989802
:EIG00196:       0.3989802    0.4002289    0.4002289    0.4127501    0.4153170
 
:EIG00201:       0.4153170    0.4199076    0.4208689    0.4208689    0.4330874
:EIG00206:       0.4330874    0.4331124    0.4337798    0.4337798    0.4347696
:EIG00211:       0.4384839    0.4501874    0.4522006    0.4522006    0.4522668
:EIG00216:       0.4526254    0.4526254    0.4595554    0.4621212    0.4624418
:EIG00221:       0.4624418    0.4676412    0.4676412    0.4794243    0.4817449
:EIG00226:       0.4821396    0.4821396    0.4872718    0.4882460    0.4882460
:EIG00231:       0.4883148    0.4883496    0.4883496    0.4884188    0.4886901
:EIG00236:       0.4886901    0.4906507    0.4906507    0.4923333    0.4925932
:EIG00241:       0.4927085    0.4927085    0.4934793    0.4934793    0.4986290
:EIG00246:       0.5234642    0.5234642    0.5235998    0.5244907    0.5244907
 
:EIG00251:       0.5261532    0.5298724    0.5300146    0.5300146    0.5302331
:EIG00256:       0.5302331    0.5309128    0.5333665    0.5408035    0.5440257
:EIG00261:       0.5440257    0.5514960    0.5619310    0.5619310    0.5694655
:EIG00266:       0.5832452    0.5849232    0.5849232    0.5860283    0.5860283
:EIG00271:       0.5863143    0.5871318    0.5871318    0.6184467    0.6187526
:EIG00276:       0.6187526    0.6190621    0.6190621    0.6195716    0.6219216
:EIG00281:       0.6248464    0.6248464    0.6255383    0.6261675    0.6261675
:EIG00286:       0.6264777    0.6284375    0.6284375    0.6287661    0.6287661
:EIG00291:       0.6292090    0.6322264    0.6363460    0.6363460    0.6386997
:EIG00296:       0.6519559    0.6519559    0.6531383    0.6575026    0.6611231
 
:EIG00301:       0.6611231    0.6616114    0.6618587    0.6618587    0.6627571
:EIG00306:       0.6627571    0.6638060    0.6827957    0.6827957    0.6829138
:EIG00311:       0.6830383    0.6830383    0.6902728    0.7059939    0.7059939
:EIG00316:       0.7102982    0.7209473    0.7212345    0.7212345    0.7220161
:EIG00321:       0.7220161    0.7235729    0.7235729    0.7242832    0.7262431
:EIG00326:       0.7262431    0.7295212    0.7683090    0.7687819    0.7748208
:EIG00331:       0.7748208    0.7771824    0.7771824    0.7774204    0.7809605
:EIG00336:       0.7820736    0.7820736    0.7826444    0.7827003    0.7827003
:EIG00341:       0.7837733    0.7837733    0.7845710    0.7862901    0.7878986
:EIG00346:       0.7878986    0.7900442    0.7908596    0.7908596    0.8079257
 
:EIG00351:       0.8079257    0.8137553    0.8158614    0.8158614    0.8166891
:EIG00356:       0.8194302    0.8194302    0.8198672    0.8198684    0.8200379
:EIG00361:       0.8200379    0.8254454    0.8254454    0.8273542    0.8274978
:EIG00366:       0.8277096    0.8277096    0.8298120    0.8298120    0.8310179
:EIG00371:       0.8441252    0.8451281    0.8616916    0.8616916    0.8657124
:EIG00376:       0.8675340    0.8675340    0.8681943    0.8752850    0.8752850
:EIG00381:       0.8757566    0.8757566    0.8814361    0.8814361    0.8815266
:EIG00386:       0.8815602    0.8820927    0.8820927    0.8931943    0.8949620
:EIG00391:       0.8954454    0.8954454    0.8997847    0.8997847    0.9080326
:EIG00396:       0.9080326    0.9082613    0.9108790    0.9108790    0.9116536
 
:EIG00401:       0.9150226    0.9150711    0.9156521    0.9158644    0.9158644
:EIG00406:       0.9168192    0.9168192    0.9190366    0.9211136    0.9217985
:EIG00411:       0.9229553    0.9229553    0.9247545    0.9260811    0.9260811
:EIG00416:       0.9267006    0.9267006    0.9269072    0.9343439    0.9343439
:EIG00421:       0.9451738    0.9490753    0.9490753    0.9498137    0.9499103
:EIG00426:       0.9499103    0.9565923    0.9573667    0.9573667    0.9624657
:EIG00431:       0.9624657    0.9629421    0.9633176    0.9633176    0.9739419
:EIG00436:       0.9797342    0.9901809    0.9901809    0.9978112    0.9978112
:EIG00441:       0.9979320    0.9999724    0.9999724    1.0002022    1.0090694
:EIG00446:       1.0090694    1.0092733    1.0096120    1.0096120    1.0102915
 
:EIG00451:       1.0104252    1.0104252    1.0104775    1.0111763    1.0111763
:EIG00456:       1.0188200    1.0229608    1.0250763    1.0252327    1.0252327
:EIG00461:       1.0279732    1.0279732    1.0288981    1.0304424    1.0304424
:EIG00466:       1.0305616    1.0313513    1.0313513    1.0338250    1.0424144
:EIG00471:       1.0431495    1.0431495    1.0442234    1.0470596    1.0470596
:EIG00476:       1.0476132    1.0487964    1.0487964    1.0496660    1.0496660
:EIG00481:       1.0533648    1.0567625    1.0567625    1.0653033    1.0698580
:EIG00486:       1.0702615    1.0702615    1.0719326    1.0719326    1.0897000
:EIG00491:       1.0897000    1.0934903    1.0934903    1.0961099    1.0974825
:EIG00496:       1.1039093    1.1181004    1.1254589    1.1254589    1.1258656
 
:EIG00501:       1.1292529    1.1292529    1.1354177    1.1354177    1.1395070
:EIG00506:       1.1501643    1.1501643    1.1505896    1.1533677    1.1538796
:EIG00511:       1.1538796    1.1543059    1.1543059    1.1643398    1.1649061
:EIG00516:       1.1649769    1.1649769    1.1705844    1.1753588    1.1753588
:EIG00521:       1.1775767    1.1854740    1.1854740    1.1883761    1.1891066
:EIG00526:       1.1891066    1.1932369    1.2130036    1.2130036    1.2149421
:EIG00531:       1.2156917    1.2156917    1.2184648    1.2184744    1.2184744
:EIG00536:       1.2201676    1.2231323    1.2241008    1.2242225    1.2242225
:EIG00541:       1.2246987    1.2246987    1.2249151    1.2249151    1.2307659
:EIG00546:       1.2334200    1.2334921    1.2334921    1.2397353    1.2397353
 
:EIG00551:       1.2399942    1.2404410    1.2404410    1.2411529    1.2426562
:EIG00556:       1.2426898    1.2426898    1.2446878    1.2446878    1.2645264
:EIG00561:       1.2671153    1.2692642    1.2692642    1.2735411    1.2738182
:EIG00566:       1.2738182    1.2810289    1.2829699    1.2829699    1.2835610
:EIG00571:       1.2849703    1.2911052    1.2911052    1.2995090    1.3001088
:EIG00576:       1.3001088    1.3004768    1.3007792    1.3007792    1.3026980
:EIG00581:       1.3037815    1.3058415    1.3058415    1.3074232    1.3074232
:EIG00586:       1.3076127    1.3100107    1.3103824    1.3103824    1.3105798
:EIG00591:       1.3107890    1.3107890    1.3119296    1.3134310    1.3151954
:EIG00596:       1.3151954    1.3159911    1.3159911    1.3172695    1.3173517
 
:EIG00601:       1.3173700    1.3173700    1.3199012    1.3200398    1.3200398
:EIG00606:       1.3210170    1.3210170    1.3217399    1.3228676    1.3228676
:EIG00611:       1.3245274    1.3318950    1.3318950    1.3368460    1.3368460
:EIG00616:       1.3377582    1.3377582    1.3377709    1.3409850    1.3409850
:EIG00621:       1.3503275    1.3506962    1.3506962    1.3543866    1.3543866
:EIG00626:       1.3544532    1.3583698    1.3657289    1.3725038    1.3725038
:EIG00631:       1.3725638    1.3730160    1.3730160    1.3766365    1.3796428
:EIG00636:       1.3796428    1.3806357    1.3806357    1.3816767    1.3818131
:EIG00641:       1.3838841    1.3843112    1.3843112    1.3871461    1.3871461
:EIG00646:       1.3929275    1.3932022    1.3932022    1.3985710    1.4006480
 
:EIG00651:       1.4010534    1.4010534    1.4026520    1.4026520    1.4054281
:EIG00656:       1.4057903    1.4057903    1.4059973    1.4062655    1.4062655
:EIG00661:       1.4082446    1.4093343    1.4093343    1.4094069    1.4094422
:EIG00666:       1.4094422    1.4106609    1.4108321    1.4108321    1.4122783
:EIG00671:       1.4163988    1.4163988    1.4267337    1.4318137    1.4371377
:EIG00676:       1.4371377    1.4451857    1.4451857    1.4484226    1.4527170
:EIG00681:       1.4527170    1.4530058    1.4533741    1.4533741    1.4570939
:EIG00686:       1.4608289    1.4609245    1.4609245    1.4615437    1.4615437
:EIG00691:       1.4670597    1.4670597    1.4703235    1.4728743    1.4744371
:EIG00696:       1.4744371    1.4762911    1.4775821    1.4775821    1.4786281
 
:EIG00701:       1.4790687    1.4790687    1.4842331    1.4842331    1.4854403
:EIG00706:       1.4874480    1.4886609    1.4894382    1.4923573    1.4923573
:EIG00711:       1.4940671    1.4940671    1.4964330    1.4964330    1.4966773
:EIG00716:       1.4979737    1.4979872    1.4979872    1.4998512    1.5037676
:EIG00721:       1.5037676    1.5042057    1.5053534    1.5053534    1.5056556
:EIG00726:       1.5112884    1.5112884    1.5116364    1.5118408    1.5118408
:EIG00731:       1.5131342    1.5131342    1.5145369    1.5148817    1.5154873
:EIG00736:       1.5154873    1.5188100    1.5188100    1.5194245    1.5213197
:EIG00741:       1.5213197    1.5259860    1.5282363    1.5330558    1.5330558
:EIG00746:       1.5396329    1.5628115    1.5638423    1.5638900    1.5638900
 
:EIG00751:       1.5651696    1.5651696    1.5661880    1.5720441    1.5720441
:EIG00756:       1.5788308    1.5788308    1.5802728    1.5833300    1.5833300
:EIG00761:       1.5841866    1.5862404    1.5862404    1.5913209    1.5921584
:EIG00766:       1.5921584    1.5921919    1.5959914    1.5969400    1.5969400
:EIG00771:       1.6006936    1.6042451    1.6042451    1.6068803    1.6068803
:EIG00776:       1.6073670    1.6073803    1.6082645    1.6082645    1.6090555
:EIG00781:       1.6090555    1.6126149    1.6176213    1.6176213    1.6246307
:EIG00786:       1.6252410    1.6252410    1.6269379    1.6275214    1.6275214
:EIG00791:       1.6284226    1.6293665    1.6293665    1.6347312    1.6391505
:EIG00796:       1.6391505    1.6392488    1.6455024    1.6455024    1.6461922
 
:EIG00801:       1.6476739    1.6476739    1.6480910    1.6480910    1.6485346
:EIG00806:       1.6540462    1.6634698    1.6634698    1.6639284    1.6644995
:EIG00811:       1.6645063    1.6648509    1.6648509    1.6659847    1.6659847
:EIG00816:       1.6673555    1.6673555    1.6707294    1.6855015    1.6902345
:EIG00821:       1.7004031    1.7004031    1.7026108    1.7026108    1.7026804
:EIG00826:       1.7026804    1.7029068    1.7059771    1.7150795    1.7150795
:EIG00831:       1.7153059    1.7157391    1.7157391    1.7169149    1.7182267
:EIG00836:       1.7188365    1.7188365    1.7200152    1.7200152    1.7212905
:EIG00841:       1.7231615    1.7278184    1.7279514    1.7279514    1.7280121
:EIG00846:       1.7280121    1.7295887    1.7295887    1.7405194    1.7522587
 
:EIG00851:       1.7566845    1.7566845    1.7574605    1.7591256    1.7591256
:EIG00856:       1.7599595    1.7602639    1.7602639    1.7621209    1.7621209
:EIG00861:       1.7623667    1.7642543    1.7644617    1.7644617    1.7651174
:EIG00866:       1.7651174    1.7770252    1.7791505    1.7791505    1.7929921
:EIG00871:       1.7934141    1.7934141    1.7942087    1.7942087    1.7956393
:EIG00876:       1.7956393    1.7957827    1.7958185    1.7966545    1.7979643
:EIG00881:       1.7982596    1.7982596    1.7987346    1.7987346    1.7996895
:EIG00886:       1.7996895    1.8006429    1.8006429    1.8008586    1.8021415
:EIG00891:       1.8042736    1.8060129    1.8136885    1.8136885    1.8266011
:EIG00896:       1.8266011    1.8299464    1.8305296    1.8305296    1.8314087
 
:EIG00901:       1.8321906    1.8321906    1.8323931    1.8323931    1.8363841
:EIG00906:       1.8413748    1.8413748    1.8414874    1.8429450    1.8429450
:EIG00911:       1.8507169    1.8526627    1.8534612    1.8534612    1.8551431
:EIG00916:       1.8609534    1.8609534    1.8880554    1.8880554    1.8895169
:EIG00921:       1.8912998    1.8912998    1.8917848    1.8974511    1.9025175
:EIG00926:       1.9025175    1.9042727    1.9043126    1.9043126    1.9047042
:EIG00931:       1.9052271    1.9052271    1.9057526    1.9075631    1.9082540
:EIG00936:       1.9082540    1.9094004    1.9109502    1.9109502    1.9129144
:EIG00941:       1.9129144    1.9150122    1.9173706    1.9261854    1.9261854
:EIG00946:       1.9272431    1.9272431    1.9283615    1.9332213    1.9386392
 
:EIG00951:       1.9386392    1.9390846    1.9407775    1.9407775    1.9463442
:EIG00956:       1.9463442    1.9476188    1.9484055    1.9484055    1.9531325
:EIG00961:       1.9558070    1.9586108    1.9586108    1.9591348    1.9597632
:EIG00966:       1.9597632    1.9626437    1.9626437    1.9644748    1.9649524
:EIG00971:       1.9688781    1.9692162    1.9692162    1.9697798    1.9697798
:EIG00976:       1.9718562    1.9718562    1.9727606    1.9770731    1.9808689
:EIG00981:       1.9808689    1.9811094    1.9812256    1.9812256    1.9817559
:EIG00986:       1.9817559    1.9868459    1.9874185    1.9874665    1.9874665
:EIG00991:       1.9876436    1.9876436    1.9882297    1.9894113    1.9894113
:EIG00996:       1.9896184    1.9896184    1.9897108    1.9898629    1.9901275
 
:EIG01001:       1.9901275    1.9935826    1.9938458    1.9938458    1.9939989
:EIG01006:       1.9940095    1.9940095    2.0000616    2.0028365    2.0096787
:EIG01011:       2.0101521    2.0101521    2.0110606    2.0115482    2.0115482
:EIG01016:       2.0122209    2.0124532    2.0147530    2.0147530    2.0164135
:EIG01021:       2.0164135    2.0184311    2.0190315    2.0190315    2.0262334
:EIG01026:       2.0262334    2.0362658    2.0383906    2.0383906    2.0385343
:EIG01031:       2.0390093    2.0390093    2.0445495    2.0445495    2.0643981
:EIG01036:       2.0643981    2.0663293    2.0674841    2.0678699    2.0678699
:EIG01041:       2.0718966    2.0718966    2.0731936    2.0734170    2.0734170
:EIG01046:       2.0752789    2.0756896    2.0756896    2.0765852    2.0776620
 
:EIG01051:       2.0776620    2.0781611    2.0781922    2.0781922    2.0783775
:EIG01056:       2.0789323    2.0806888    2.0816408    2.0816408    2.0826913
:EIG01061:       2.0826913    2.0844827    2.0857849    2.0857849    2.0952177
:EIG01066:       2.0962604    2.0962604    2.0980512    2.0983681    2.0983681
:EIG01071:       2.1011790    2.1046890    2.1046890    2.1066689    2.1066689
:EIG01076:       2.1082569    2.1177102    2.1177102    2.1184264    2.1184264
:EIG01081:       2.1186505    2.1187165    2.1191147    2.1192176    2.1192176
:EIG01086:       2.1202977    2.1215136    2.1215136    2.1330707    2.1376115
:EIG01091:       2.1380774    2.1418328    2.1418328    2.1546076    2.1546076
:EIG01096:       2.1589741    2.1657729    2.1657729    2.1672924    2.1680315
 
:EIG01101:       2.1680315    2.1689383    2.1689383    2.1693687    2.1699922
:EIG01106:       2.1699922    2.1712707    2.1728999    2.1728999    2.1744455
:EIG01111:       2.1763723    2.1763723    2.1803919    2.1807755    2.1810054
:EIG01116:       2.1810514    2.1810514    2.1823050    2.1823050    2.1842116
:EIG01121:       2.1842116    2.1844619    2.1847442    2.1848584    2.1848584
:EIG01126:       2.1852526    2.1853478    2.1853518    2.1853518    2.1861632
:EIG01131:       2.1861632    2.1865023    2.1865874    2.1865874    2.1876654
:EIG01136:       2.1907827    2.1909425    2.1909484    2.1909484    2.1927236
:EIG01141:       2.1927236    2.1931338    2.1931566    2.1931566    2.1944513
:EIG01146:       2.1944513    2.1947182    2.1950916    2.1957949    2.1961582
 
:EIG01151:       2.1961582    2.2000893    2.2000893    2.2005920    2.2028686
:EIG01156:       2.2054675    2.2054675    2.2061818    2.2061818    2.2098509
:EIG01161:       2.2124268    2.2124268    2.2125743    2.2126328    2.2128063
:EIG01166:       2.2135769    2.2135769    2.2144261    2.2144261    2.2153330
:EIG01171:       2.2154124    2.2154124    2.2164762    2.2193179    2.2193179
:EIG01176:       2.2199077    2.2199077    2.2204584    2.2221017    2.2223782
:EIG01181:       2.2223782    2.2230039    2.2230039    2.2276658    2.2276658
:EIG01186:       2.2367756    2.2429433    2.2429433    2.2429790    2.2438794
:EIG01191:       2.2488066    2.2488066    2.2567825    2.2567825    2.2577385
:EIG01196:       2.2598619    2.2598619    2.2621256    2.2648761    2.2648761
 
:EIG01201:       2.2662128    2.2666192    2.2676655    2.2676655    2.2704288
:EIG01206:       2.2705218    2.2707444    2.2707444    2.2750529    2.2750529
:EIG01211:       2.2912436    2.2912436    2.2922570    2.2922570    2.2927588
:EIG01216:       2.2939569    2.2954358    2.3031541    2.3031541    2.3043534
:EIG01221:       2.3070872    2.3070872    2.3205888    2.3251304    2.3251304
:EIG01226:       2.3373948    2.3386739    2.3386739    2.3412835    2.3412835
:EIG01231:       2.3449097    2.3478909    2.3478909    2.3481092    2.3508756
:EIG01236:       2.3512684    2.3512684    2.3536225    2.3539474    2.3539474
:EIG01241:       2.3557613    2.3557613    2.3637587    2.3718731    2.3760701
:EIG01246:       2.3766439    2.3766439    2.3777410    2.3777410    2.3784218
 
:EIG01251:       2.3784218    2.3812669    2.3853059    2.3854129    2.3854403
:EIG01256:       2.3854403    2.3872754    2.3872754    2.3912258    2.3942822
:EIG01261:       2.3942822    2.3958317    2.3958317    2.3960368    2.3971884
:EIG01266:       2.3971884    2.4018323    2.4018427    2.4019285    2.4019285
:EIG01271:       2.4024250    2.4024250    2.4071821    2.4071821    2.4175564
:EIG01276:       2.4177614    2.4177614    2.4178084    2.4185878    2.4185878
:EIG01281:       2.4194728    2.4196792    2.4196792    2.4198200    2.4204844
:EIG01286:       2.4204844    2.4210115    2.4210695    2.4210695    2.4253769
:EIG01291:       2.4255466    2.4255466    2.4261902    2.4274828    2.4274828
:EIG01296:       2.4303917    2.4303917    2.4337699    2.4369130    2.4375300
 
:EIG01301:       2.4375300    2.4397026    2.4431173    2.4431173    2.4502799
:EIG01306:       2.4502799    2.4516314    2.4522880    2.4522880    2.4548719
:EIG01311:       2.4566863    2.4594342    2.4594342    2.4602550    2.4602550
:EIG01316:       2.4610113    2.4623836    2.4623836    2.4684061    2.4684275
:EIG01321:       2.4684275    2.4696452    2.4701452    2.4721573    2.4733842
:EIG01326:       2.4733842    2.4772639    2.4772639    2.4774112    2.4778451
:EIG01331:       2.4779793    2.4779793    2.4780648    2.4780648    2.4780975
:EIG01336:       2.4792548    2.4796132    2.4796132    2.4816901    2.4816901
:EIG01341:       2.4831684    2.4831684    2.4861286    2.4945639
       ********************************************************

:KPT   :      NUMBER OF K-POINTS:     10
:WARN :      WARNING: RKmax reduced due to NMATMAX
:GMA  : POTENTIAL AND CHARGE CUT-OFF  16.00 Ry**.5
       Insulator, EF-inconsistency corrected
:GAP  :    0.0377 Ry =     0.513 eV   (provided you have a proper k-mesh)
         Bandranges (emin - emax) and occupancy:
:BAN00088:  88   -0.631612   -0.570398  2.00000000
:BAN00089:  89   -0.624431   -0.566387  2.00000000
:BAN00090:  90   -0.615889   -0.564747  2.00000000
:BAN00091:  91   -0.615889   -0.558687  2.00000000
:BAN00092:  92   -0.553931   -0.540408  2.00000000
:BAN00093:  93   -0.551209   -0.475472  2.00000000
:BAN00094:  94   -0.543201   -0.475472  2.00000000
:BAN00095:  95   -0.538482   -0.473380  2.00000000
:BAN00096:  96   -0.505949   -0.466058  2.00000000
:BAN00097:  97   -0.466058   -0.424775  2.00000000
:BAN00098:  98   -0.378229   -0.362068  2.00000000
:BAN00099:  99   -0.324319   -0.316163  0.00000000
:BAN00100: 100   -0.322466   -0.316163  0.00000000
:BAN00101: 101   -0.318804   -0.269507  0.00000000
:BAN00102: 102   -0.270408   -0.238471  0.00000000
:BAN00103: 103   -0.269240   -0.223651  0.00000000
        Energy to separate low and high energystates: -999.00000


:NOE  : NUMBER OF ELECTRONS          = 196.000

:FER  : F E R M I - ENERGY(TETRAH.M.)=  -0.3620681327
:GMA  : POTENTIAL AND CHARGE CUT-OFF  16.00 Ry**.5
 
 
 
 
:POS001: ATOM   -1 POSITION = 0.59987 0.40013 0.00000  MULTIPLICITY = 3  ZZ=  6.000  C 1
 
       LMMAX 16
       LM=   0 0  1 0  2 0  2 2  3 0  3 2  4 0  4 2  4 4  5 0  5 2  5 4  6 0  6 2  6 4  6 6
 
:CHA001: TOTAL VALENCE CHARGE INSIDE SPHERE   1 =     1.728344
:PCS001: PARTIAL CHARGES SPHERE =  1 S,P,D,F,PX,PY,PZ,D-Z2,D-X2Y2,D-XY,D-XZ,D-YZ
:QTL001: 0.6267 1.0745 0.0235 0.0033 0.3521 0.4769 0.2453 0.0021 0.0054 0.0029 0.0013 0.0115
        Q-s-low E-s-low   Q-p-low E-p-low   Q-d-low E-d-low   Q-f-low E-f-low
:EPL001:  0.0000 10.0000    0.0000 10.0000    0.0000 10.0000    0.0000 10.0000
        Q-s-hi  E-s-hi    Q-p-hi  E-p-hi    Q-d-hi  E-d-hi    Q-f-hi  E-f-hi
:EPH001:  0.6267 -1.3733    1.0745 -0.8384    0.0235 -1.0385    0.0033 -1.0323
 
                      VXX         VYY         VZZ       UP TO R
 
:VZZ001:             0.33768    -5.66626     5.32858       1.320
 
 
 
 
:POS002: ATOM   -2 POSITION = 0.86544 0.33290 0.00000  MULTIPLICITY = 6  ZZ=  6.000  C 2
 
       LMMAX 28
       LM=   0 0  1 1 -1 1  2 0  2 2 -2 2  3 1 -3 1  3 3 -3 3  4 0  4 2 -4 2  4 4 -4 4  5 1 -5 1
         5 3 -5 3  5 5 -5 5  6 0  6 2 -6 2  6 4 -6 4  6 6 -6 6
 
:CHA002: TOTAL VALENCE CHARGE INSIDE SPHERE   2 =     2.055552
:PCS002: PARTIAL CHARGES SPHERE =  2 S,P,D,F,PX,PY,PZ,D-Z2,D-X2Y2,D-XY,D-XZ,D-YZ
:QTL002: 0.6583 1.3602 0.0320 0.0043 0.4805 0.4973 0.3826 0.0041 0.0105 0.0117 0.0023 0.0035
        Q-s-low E-s-low   Q-p-low E-p-low   Q-d-low E-d-low   Q-f-low E-f-low
:EPL002:  0.0000 10.0000    0.0000 10.0000    0.0000 10.0000    0.0000 10.0000
        Q-s-hi  E-s-hi    Q-p-hi  E-p-hi    Q-d-hi  E-d-hi    Q-f-hi  E-f-hi
:EPH002:  0.6583 -1.5039    1.3602 -0.9406    0.0320 -0.9764    0.0043 -1.0500
 
                      QXX         QXY         QYY         QZZ       UP TO R
 
:VZZ002:            -1.30686    -0.16332    -2.16507     3.47194       1.320
 
 
 
 
:POS003: ATOM   -3 POSITION = 0.00020 0.40034 0.00000  MULTIPLICITY = 6  ZZ=  6.000  C 3
 
       LMMAX 28
       LM=   0 0  1 1 -1 1  2 0  2 2 -2 2  3 1 -3 1  3 3 -3 3  4 0  4 2 -4 2  4 4 -4 4  5 1 -5 1
         5 3 -5 3  5 5 -5 5  6 0  6 2 -6 2  6 4 -6 4  6 6 -6 6
 
:CHA003: TOTAL VALENCE CHARGE INSIDE SPHERE   3 =     2.036117
:PCS003: PARTIAL CHARGES SPHERE =  3 S,P,D,F,PX,PY,PZ,D-Z2,D-X2Y2,D-XY,D-XZ,D-YZ
:QTL003: 0.6557 1.3436 0.0320 0.0043 0.4776 0.4936 0.3722 0.0041 0.0115 0.0117 0.0029 0.0029
        Q-s-low E-s-low   Q-p-low E-p-low   Q-d-low E-d-low   Q-f-low E-f-low
:EPL003:  0.0000 10.0000    0.0000 10.0000    0.0000 10.0000    0.0000 10.0000
        Q-s-hi  E-s-hi    Q-p-hi  E-p-hi    Q-d-hi  E-d-hi    Q-f-hi  E-f-hi
:EPH003:  0.6557 -1.5041    1.3436 -0.9423    0.0320 -1.0017    0.0043 -1.0747
 
                      QXX         QXY         QYY         QZZ       UP TO R
 
:VZZ003:            -1.44930    -0.08423    -2.24698     3.69631       1.320
 
 
 
 
:POS004: ATOM   -4 POSITION = 0.06655 0.33316 0.00000  MULTIPLICITY = 6  ZZ=  6.000  C 4
 
       LMMAX 28
       LM=   0 0  1 1 -1 1  2 0  2 2 -2 2  3 1 -3 1  3 3 -3 3  4 0  4 2 -4 2  4 4 -4 4  5 1 -5 1
         5 3 -5 3  5 5 -5 5  6 0  6 2 -6 2  6 4 -6 4  6 6 -6 6
 
:CHA004: TOTAL VALENCE CHARGE INSIDE SPHERE   4 =     2.053244
:PCS004: PARTIAL CHARGES SPHERE =  4 S,P,D,F,PX,PY,PZ,D-Z2,D-X2Y2,D-XY,D-XZ,D-YZ
:QTL004: 0.6581 1.3576 0.0328 0.0043 0.4926 0.4938 0.3710 0.0041 0.0117 0.0117 0.0029 0.0029
        Q-s-low E-s-low   Q-p-low E-p-low   Q-d-low E-d-low   Q-f-low E-f-low
:EPL004:  0.0000 10.0000    0.0000 10.0000    0.0000 10.0000    0.0000 10.0000
        Q-s-hi  E-s-hi    Q-p-hi  E-p-hi    Q-d-hi  E-d-hi    Q-f-hi  E-f-hi
:EPH004:  0.6581 -1.5089    1.3576 -0.9463    0.0328 -1.0000    0.0043 -1.0742
 
                      QXX         QXY         QYY         QZZ       UP TO R
 
:VZZ004:            -1.96786    -0.07522    -2.02605     3.99390       1.320
 
 
 
 
:POS005: ATOM   -5 POSITION = 0.20002 0.40005 0.00000  MULTIPLICITY = 3  ZZ=  6.000  C 5
 
       LMMAX 16
       LM=   0 0  1 0  2 0  2 2  3 0  3 2  4 0  4 2  4 4  5 0  5 2  5 4  6 0  6 2  6 4  6 6
 
:CHA005: TOTAL VALENCE CHARGE INSIDE SPHERE   5 =     2.058580
:PCS005: PARTIAL CHARGES SPHERE =  5 S,P,D,F,PX,PY,PZ,D-Z2,D-X2Y2,D-XY,D-XZ,D-YZ
:QTL005: 0.6581 1.3632 0.0323 0.0043 0.3772 0.4923 0.4938 0.0097 0.0056 0.0029 0.0029 0.0117
        Q-s-low E-s-low   Q-p-low E-p-low   Q-d-low E-d-low   Q-f-low E-f-low
:EPL005:  0.0000 10.0000    0.0000 10.0000    0.0000 10.0000    0.0000 10.0000
        Q-s-hi  E-s-hi    Q-p-hi  E-p-hi    Q-d-hi  E-d-hi    Q-f-hi  E-f-hi
:EPH005:  0.6581 -1.5086    1.3632 -0.9429    0.0323 -1.0041    0.0043 -1.0775
 
                      VXX         VYY         VZZ       UP TO R
 
:VZZ005:             3.77266    -1.84371    -1.92894       1.320
 
 
 
 
:POS006: ATOM   -6 POSITION = 0.80016 0.60033 0.00000  MULTIPLICITY = 3  ZZ=  6.000  C 6
 
       LMMAX 16
       LM=   0 0  1 0  2 0  2 2  3 0  3 2  4 0  4 2  4 4  5 0  5 2  5 4  6 0  6 2  6 4  6 6
 
:CHA006: TOTAL VALENCE CHARGE INSIDE SPHERE   6 =     2.094452
:PCS006: PARTIAL CHARGES SPHERE =  6 S,P,D,F,PX,PY,PZ,D-Z2,D-X2Y2,D-XY,D-XZ,D-YZ
:QTL006: 0.6629 1.3931 0.0331 0.0043 0.4039 0.4895 0.4998 0.0097 0.0056 0.0031 0.0029 0.0118
        Q-s-low E-s-low   Q-p-low E-p-low   Q-d-low E-d-low   Q-f-low E-f-low
:EPL006:  0.0000 10.0000    0.0000 10.0000    0.0000 10.0000    0.0000 10.0000
        Q-s-hi  E-s-hi    Q-p-hi  E-p-hi    Q-d-hi  E-d-hi    Q-f-hi  E-f-hi
:EPH006:  0.6629 -1.5085    1.3931 -0.9351    0.0331 -1.0019    0.0043 -1.0764
 
                      VXX         VYY         VZZ       UP TO R
 
:VZZ006:             2.91147    -1.18924    -1.72222       1.320
 
 
 
 
:POS007: ATOM   -7 POSITION = 0.06661 0.53331 0.00000  MULTIPLICITY = 3  ZZ=  6.000  C 7
 
       LMMAX 16
       LM=   0 0  1 0  2 0  2 2  3 0  3 2  4 0  4 2  4 4  5 0  5 2  5 4  6 0  6 2  6 4  6 6
 
:CHA007: TOTAL VALENCE CHARGE INSIDE SPHERE   7 =     2.069034
:PCS007: PARTIAL CHARGES SPHERE =  7 S,P,D,F,PX,PY,PZ,D-Z2,D-X2Y2,D-XY,D-XZ,D-YZ
:QTL007: 0.6597 1.3713 0.0330 0.0043 0.3780 0.4976 0.4959 0.0096 0.0056 0.0029 0.0029 0.0118
        Q-s-low E-s-low   Q-p-low E-p-low   Q-d-low E-d-low   Q-f-low E-f-low
:EPL007:  0.0000 10.0000    0.0000 10.0000    0.0000 10.0000    0.0000 10.0000
        Q-s-hi  E-s-hi    Q-p-hi  E-p-hi    Q-d-hi  E-d-hi    Q-f-hi  E-f-hi
:EPH007:  0.6597 -1.5122    1.3713 -0.9469    0.0330 -1.0037    0.0043 -1.0734
 
                      VXX         VYY         VZZ       UP TO R
 
:VZZ007:             3.88594    -1.99120    -1.89476       1.320
 
 
 
 
:POS008: ATOM   -8 POSITION = 0.86659 0.73318 0.00000  MULTIPLICITY = 3  ZZ=  6.000  C 8
 
       LMMAX 16
       LM=   0 0  1 0  2 0  2 2  3 0  3 2  4 0  4 2  4 4  5 0  5 2  5 4  6 0  6 2  6 4  6 6
 
:CHA008: TOTAL VALENCE CHARGE INSIDE SPHERE   8 =     2.056608
:PCS008: PARTIAL CHARGES SPHERE =  8 S,P,D,F,PX,PY,PZ,D-Z2,D-X2Y2,D-XY,D-XZ,D-YZ
:QTL008: 0.6587 1.3596 0.0331 0.0044 0.3701 0.4933 0.4961 0.0097 0.0056 0.0029 0.0033 0.0117
        Q-s-low E-s-low   Q-p-low E-p-low   Q-d-low E-d-low   Q-f-low E-f-low
:EPL008:  0.0000 10.0000    0.0000 10.0000    0.0000 10.0000    0.0000 10.0000
        Q-s-hi  E-s-hi    Q-p-hi  E-p-hi    Q-d-hi  E-d-hi    Q-f-hi  E-f-hi
:EPH008:  0.6587 -1.5106    1.3596 -0.9481    0.0331 -0.9925    0.0044 -1.0699
 
                      VXX         VYY         VZZ       UP TO R
 
:VZZ008:             4.08147    -1.96194    -2.11955       1.320
 
 
 
 
:POS009: ATOM   -9 POSITION = 0.20004 0.60002 0.00000  MULTIPLICITY = 3  ZZ=  6.000  C 9
 
       LMMAX 16
       LM=   0 0  1 0  2 0  2 2  3 0  3 2  4 0  4 2  4 4  5 0  5 2  5 4  6 0  6 2  6 4  6 6
 
:CHA009: TOTAL VALENCE CHARGE INSIDE SPHERE   9 =     2.060160
:PCS009: PARTIAL CHARGES SPHERE =  9 S,P,D,F,PX,PY,PZ,D-Z2,D-X2Y2,D-XY,D-XZ,D-YZ
:QTL009: 0.6582 1.3642 0.0328 0.0043 0.3766 0.4944 0.4933 0.0097 0.0056 0.0029 0.0029 0.0117
        Q-s-low E-s-low   Q-p-low E-p-low   Q-d-low E-d-low   Q-f-low E-f-low
:EPL009:  0.0000 10.0000    0.0000 10.0000    0.0000 10.0000    0.0000 10.0000
        Q-s-hi  E-s-hi    Q-p-hi  E-p-hi    Q-d-hi  E-d-hi    Q-f-hi  E-f-hi
:EPH009:  0.6582 -1.5097    1.3642 -0.9440    0.0328 -1.0033    0.0043 -1.0776
 
                      VXX         VYY         VZZ       UP TO R
 
:VZZ009:             3.82147    -1.93871    -1.88274       1.320
 
 
 
 
:POS010: ATOM  -10 POSITION = 0.26667 0.53334 0.00000  MULTIPLICITY = 3  ZZ=  6.000  C 10
 
       LMMAX 16
       LM=   0 0  1 0  2 0  2 2  3 0  3 2  4 0  4 2  4 4  5 0  5 2  5 4  6 0  6 2  6 4  6 6
 
:CHA010: TOTAL VALENCE CHARGE INSIDE SPHERE  10 =     2.060048
:PCS010: PARTIAL CHARGES SPHERE = 10 S,P,D,F,PX,PY,PZ,D-Z2,D-X2Y2,D-XY,D-XZ,D-YZ
:QTL010: 0.6586 1.3636 0.0329 0.0043 0.3744 0.4945 0.4946 0.0097 0.0056 0.0029 0.0029 0.0117
        Q-s-low E-s-low   Q-p-low E-p-low   Q-d-low E-d-low   Q-f-low E-f-low
:EPL010:  0.0000 10.0000    0.0000 10.0000    0.0000 10.0000    0.0000 10.0000
        Q-s-hi  E-s-hi    Q-p-hi  E-p-hi    Q-d-hi  E-d-hi    Q-f-hi  E-f-hi
:EPH010:  0.6586 -1.5102    1.3636 -0.9458    0.0329 -1.0010    0.0043 -1.0747
 
                      VXX         VYY         VZZ       UP TO R
 
:VZZ010:             3.92699    -1.96189    -1.96508       1.320
 
 
 
 
:POS011: ATOM  -11 POSITION = 0.86667 0.93333 0.00000  MULTIPLICITY = 3  ZZ=  6.000  C 11
 
       LMMAX 16
       LM=   0 0  1 0  2 0  2 2  3 0  3 2  4 0  4 2  4 4  5 0  5 2  5 4  6 0  6 2  6 4  6 6
 
:CHA011: TOTAL VALENCE CHARGE INSIDE SPHERE  11 =     2.056596
:PCS011: PARTIAL CHARGES SPHERE = 11 S,P,D,F,PX,PY,PZ,D-Z2,D-X2Y2,D-XY,D-XZ,D-YZ
:QTL011: 0.6585 1.3598 0.0331 0.0043 0.3707 0.4947 0.4945 0.0097 0.0056 0.0030 0.0032 0.0118
        Q-s-low E-s-low   Q-p-low E-p-low   Q-d-low E-d-low   Q-f-low E-f-low
:EPL011:  0.0000 10.0000    0.0000 10.0000    0.0000 10.0000    0.0000 10.0000
        Q-s-hi  E-s-hi    Q-p-hi  E-p-hi    Q-d-hi  E-d-hi    Q-f-hi  E-f-hi
:EPH011:  0.6585 -1.5106    1.3598 -0.9477    0.0331 -0.9939    0.0043 -1.0707
 
                      VXX         VYY         VZZ       UP TO R
 
:VZZ011:             4.05557    -2.02833    -2.02728       1.320
 
 
 
 
:POS012: ATOM  -12 POSITION = 0.79998 0.80007 0.00000  MULTIPLICITY = 6  ZZ=  6.000  C 12
 
       LMMAX 28
       LM=   0 0  1 1 -1 1  2 0  2 2 -2 2  3 1 -3 1  3 3 -3 3  4 0  4 2 -4 2  4 4 -4 4  5 1 -5 1
         5 3 -5 3  5 5 -5 5  6 0  6 2 -6 2  6 4 -6 4  6 6 -6 6
 
:CHA012: TOTAL VALENCE CHARGE INSIDE SPHERE  12 =     2.067904
:PCS012: PARTIAL CHARGES SPHERE = 12 S,P,D,F,PX,PY,PZ,D-Z2,D-X2Y2,D-XY,D-XZ,D-YZ
:QTL012: 0.6586 1.3716 0.0328 0.0043 0.4949 0.4938 0.3830 0.0041 0.0118 0.0117 0.0029 0.0029
        Q-s-low E-s-low   Q-p-low E-p-low   Q-d-low E-d-low   Q-f-low E-f-low
:EPL012:  0.0000 10.0000    0.0000 10.0000    0.0000 10.0000    0.0000 10.0000
        Q-s-hi  E-s-hi    Q-p-hi  E-p-hi    Q-d-hi  E-d-hi    Q-f-hi  E-f-hi
:EPH012:  0.6586 -1.5103    1.3716 -0.9417    0.0328 -1.0051    0.0043 -1.0792
 
                      QXX         QXY         QYY         QZZ       UP TO R
 
:VZZ012:            -1.83167    -0.03167    -1.79059     3.62227       1.320
 
 
 
 
:POS013: ATOM  -13 POSITION = 0.00000 0.00000 0.00000  MULTIPLICITY = 1  ZZ=  6.000  C 13
 
       LMMAX  7
       LM=   0 0  2 0  3 3  4 0  5 3  6 0  6 6
 
:CHA013: TOTAL VALENCE CHARGE INSIDE SPHERE  13 =     2.080988
:PCS013: PARTIAL CHARGES SPHERE = 13 S,P,D,F,PZ,PXY, D-Z2,D-XY,X2Y2,D-XZ,YZ
:QTL013: 0.6583 1.3849 0.0328 0.0043 0.3966 0.9884 0.0000 0.0041 0.0235 0.0054 0.0000 0.0000
        Q-s-low E-s-low   Q-p-low E-p-low   Q-d-low E-d-low   Q-f-low E-f-low
:EPL013:  0.0000 10.0000    0.0000 10.0000    0.0000 10.0000    0.0000 10.0000
        Q-s-hi  E-s-hi    Q-p-hi  E-p-hi    Q-d-hi  E-d-hi    Q-f-hi  E-f-hi
:EPH013:  0.6583 -1.5100    1.3849 -0.9352    0.0328 -1.0045    0.0043 -1.0798
:VZZ013: EFG INSIDE SPHERE  13 =     3.152112      UP TO R =   1.32000
 
:CHA  : TOTAL VALENCE CHARGE INSIDE UNIT CELL =     196.000000
 
:SUM  : SUM OF EIGENVALUES =        -215.499482090
 

        1.ATOM      C 1                   1 CORE STATES
       CORE-FORCE in mRy/a.u. = |F|      Fx             Fy             Fz
:FCO001:   1.ATOM    281.918961770      0.000000000      0.000000000   -281.918961770

:1S 001: 1S                 -19.945086022 Ry

        2.ATOM      C 2                   1 CORE STATES
       CORE-FORCE in mRy/a.u. = |F|      Fx             Fy             Fz
:FCO002:   2.ATOM     14.342565061    -13.891082406      3.570294405      0.000000000

:1S 002: 1S                 -20.005099749 Ry

        3.ATOM      C 3                   1 CORE STATES
       CORE-FORCE in mRy/a.u. = |F|      Fx             Fy             Fz
:FCO003:   3.ATOM     17.240102556     16.374964336      5.392743193      0.000000000

:1S 003: 1S                 -20.003977201 Ry

        4.ATOM      C 4                   1 CORE STATES
       CORE-FORCE in mRy/a.u. = |F|      Fx             Fy             Fz
:FCO004:   4.ATOM      3.436518030     -0.467289921     -3.404599286      0.000000000

:1S 004: 1S                 -20.006815595 Ry

        5.ATOM      C 5                   1 CORE STATES
       CORE-FORCE in mRy/a.u. = |F|      Fx             Fy             Fz
:FCO005:   5.ATOM      1.580082462      0.000000000      0.000000000      1.580082462

:1S 005: 1S                 -20.006619259 Ry

        6.ATOM      C 6                   1 CORE STATES
       CORE-FORCE in mRy/a.u. = |F|      Fx             Fy             Fz
:FCO006:   6.ATOM      0.832695606      0.000000000      0.000000000     -0.832695606

:1S 006: 1S                 -20.009531659 Ry

        7.ATOM      C 7                   1 CORE STATES
       CORE-FORCE in mRy/a.u. = |F|      Fx             Fy             Fz
:FCO007:   7.ATOM      4.813833601      0.000000000      0.000000000     -4.813833601

:1S 007: 1S                 -20.008933310 Ry

        8.ATOM      C 8                   1 CORE STATES
       CORE-FORCE in mRy/a.u. = |F|      Fx             Fy             Fz
:FCO008:   8.ATOM      6.975539590      0.000000000      0.000000000     -6.975539590

:1S 008: 1S                 -20.007688813 Ry

        9.ATOM      C 9                   1 CORE STATES
       CORE-FORCE in mRy/a.u. = |F|      Fx             Fy             Fz
:FCO009:   9.ATOM      1.133268333      0.000000000      0.000000000      1.133268333

:1S 009: 1S                 -20.007167123 Ry

       10.ATOM      C 10                  1 CORE STATES
       CORE-FORCE in mRy/a.u. = |F|      Fx             Fy             Fz
:FCO010:  10.ATOM      0.120459983      0.000000000      0.000000000     -0.120459983

:1S 010: 1S                 -20.007480001 Ry

       11.ATOM      C 11                  1 CORE STATES
       CORE-FORCE in mRy/a.u. = |F|      Fx             Fy             Fz
:FCO011:  11.ATOM      1.018744589      0.000000000      0.000000000     -1.018744589

:1S 011: 1S                 -20.007639183 Ry

       12.ATOM      C 12                  1 CORE STATES
       CORE-FORCE in mRy/a.u. = |F|      Fx             Fy             Fz
:FCO012:  12.ATOM      3.482698790     -2.911227534      1.911529520      0.000000000

:1S 012: 1S                 -20.007525162 Ry

       13.ATOM      C 13                  1 CORE STATES
:1S 013: 1S                 -20.007292454 Ry
:CINT Core integral, Spin Up atom    1      1.99975786
:CINT Core integral, Spin Up atom    2      1.99975512
:CINT Core integral, Spin Up atom    3      1.99975518
:CINT Core integral, Spin Up atom    4      1.99975505
:CINT Core integral, Spin Up atom    5      1.99975506
:CINT Core integral, Spin Up atom    6      1.99975493
:CINT Core integral, Spin Up atom    7      1.99975496
:CINT Core integral, Spin Up atom    8      1.99975501
:CINT Core integral, Spin Up atom    9      1.99975504
:CINT Core integral, Spin Up atom   10      1.99975502
:CINT Core integral, Spin Up atom   11      1.99975501
:CINT Core integral, Spin Up atom   12      1.99975502
:CINT Core integral, Spin Up atom   13      1.99975503

       DENSITY AT NUCLEUS
        JATOM    VALENCE       SEMI-CORE            CORE           TOTAL
:RTO001:   1        4.541068        0.000000      122.678158      127.219225
:RTO002:   2        4.734009        0.000000      122.639850      127.373859
:RTO003:   3        4.712274        0.000000      122.640698      127.352972
:RTO004:   4        4.729429        0.000000      122.638857      127.368287
:RTO005:   5        4.728635        0.000000      122.638986      127.367621
:RTO006:   6        4.767531        0.000000      122.637071      127.404602
:RTO007:   7        4.741966        0.000000      122.637489      127.379456
:RTO008:   8        4.733348        0.000000      122.638300      127.371647
:RTO009:   9        4.730284        0.000000      122.638634      127.368917
:RTO010:  10        4.732679        0.000000      122.638429      127.371108
:RTO011:  11        4.732131        0.000000      122.638327      127.370458
:RTO012:  12        4.732416        0.000000      122.638402      127.370818
:RTO013:  13        4.730867        0.000000      122.638549      127.369416
     
       CHARGES OF NEW CHARGE DENSITY
:NTO  : TOTAL   INTERSTITIAL CHARGE=   96.0906408
:NTO001: TOTAL   CHARGE IN SPHERE  1 =        3.7281012
:NTO002: TOTAL   CHARGE IN SPHERE  2 =        4.0553084
:NTO003: TOTAL   CHARGE IN SPHERE  3 =        4.0358702
:NTO004: TOTAL   CHARGE IN SPHERE  4 =        4.0529998
:NTO005: TOTAL   CHARGE IN SPHERE  5 =        4.0583346
:NTO006: TOTAL   CHARGE IN SPHERE  6 =        4.0942064
:NTO007: TOTAL   CHARGE IN SPHERE  7 =        4.0687891
:NTO008: TOTAL   CHARGE IN SPHERE  8 =        4.0563639
:NTO009: TOTAL   CHARGE IN SPHERE  9 =        4.0599149
:NTO010: TOTAL   CHARGE IN SPHERE 10 =        4.0598035
:NTO011: TOTAL   CHARGE IN SPHERE 11 =        4.0563510
:NTO012: TOTAL   CHARGE IN SPHERE 12 =        4.0676597
:NTO013: TOTAL   CHARGE IN SPHERE 13 =        4.0807425

:NEC01: NUCLEAR AND ELECTRONIC CHARGE    294.00000   293.98801
     
       CHARGES OF OLD CHARGE DENSITY
:OTO  : TOTAL   INTERSTITIAL CHARGE=  103.1590764
:OTO001: TOTAL   CHARGE IN SPHERE  1 =        3.8091027
:OTO002: TOTAL   CHARGE IN SPHERE  2 =        3.8988360
:OTO003: TOTAL   CHARGE IN SPHERE  3 =        3.8971465
:OTO004: TOTAL   CHARGE IN SPHERE  4 =        3.9011898
:OTO005: TOTAL   CHARGE IN SPHERE  5 =        3.9009167
:OTO006: TOTAL   CHARGE IN SPHERE  6 =        3.9050729
:OTO007: TOTAL   CHARGE IN SPHERE  7 =        3.9041805
:OTO008: TOTAL   CHARGE IN SPHERE  8 =        3.9024177
:OTO009: TOTAL   CHARGE IN SPHERE  9 =        3.9016933
:OTO010: TOTAL   CHARGE IN SPHERE 10 =        3.9021337
:OTO011: TOTAL   CHARGE IN SPHERE 11 =        3.9023599
:OTO012: TOTAL   CHARGE IN SPHERE 12 =        3.9021952
:OTO013: TOTAL   CHARGE IN SPHERE 13 =        3.9018740

:NEC02: NUCLEAR AND ELECTRONIC CHARGE    294.00000   294.04079
     
       CONVERGENCE TEST
:DTO001: TOTAL   DIFFERENCE CHARGE**2 IN SPHERE  1 =  0.2464841
:DTO002: TOTAL   DIFFERENCE CHARGE**2 IN SPHERE  2 =  0.2884362
:DTO003: TOTAL   DIFFERENCE CHARGE**2 IN SPHERE  3 =  0.2767343
:DTO004: TOTAL   DIFFERENCE CHARGE**2 IN SPHERE  4 =  0.2852419
:DTO005: TOTAL   DIFFERENCE CHARGE**2 IN SPHERE  5 =  0.2898887
:DTO006: TOTAL   DIFFERENCE CHARGE**2 IN SPHERE  6 =  0.3137144
:DTO007: TOTAL   DIFFERENCE CHARGE**2 IN SPHERE  7 =  0.2946120
:DTO008: TOTAL   DIFFERENCE CHARGE**2 IN SPHERE  8 =  0.2865120
:DTO009: TOTAL   DIFFERENCE CHARGE**2 IN SPHERE  9 =  0.2904041
:DTO010: TOTAL   DIFFERENCE CHARGE**2 IN SPHERE 10 =  0.2896758
:DTO011: TOTAL   DIFFERENCE CHARGE**2 IN SPHERE 11 =  0.2866932
:DTO012: TOTAL   DIFFERENCE CHARGE**2 IN SPHERE 12 =  0.2962513
:DTO013: TOTAL   DIFFERENCE CHARGE**2 IN SPHERE 13 =  0.3078393

:DIS  :  CHARGE DISTANCE       ( 0.3137144 for atom    6 spin 1)      0.2873832
:BIG check (qbig,qrms,qtot)    0.105D+00   0.203D+00   0.287D+00
 
******************************************************
* MULTISECANT MIXING VER4 RELEASE 5.3 OPTIONS        *
* Unpredicted Step Limit   0.150000                  *
* Plane Wave Dynamic Rescaling                       *
* Dynamic Regularization Active                      *
* Upper Cutoff Lambda  1.0E-01 Lower 2.5E-04         *
* SQRT Multiplicity/Degeneracy                       *
* Trust Region Control Active                        *
* Max Number of Memory Steps    8                    *
******************************************************
 
:PLANE:  INTERSTITIAL TOTAL      5.58474 DISTAN  3.170E+01 % 
:CHARG:  CLM CHARGE   /ATOM     10.34365 DISTAN  4.971E+00 % 
 Step History
 1  3.5000E-02  1.0000E+00  1.0000E+00  1.0000E+00
:MIX  :   PRATT  REGULARIZATION: 2.50E-04  GREED: 0.035
     
       CHARGES OF MIXED CHARGE DENSITY
:CTO  : TOTAL   INTERSTITIAL CHARGE=  102.8727408
:CTO001: TOTAL   CHARGE IN SPHERE  1 =        3.8062677
:CTO002: TOTAL   CHARGE IN SPHERE  2 =        3.9043125
:CTO003: TOTAL   CHARGE IN SPHERE  3 =        3.9020018
:CTO004: TOTAL   CHARGE IN SPHERE  4 =        3.9065032
:CTO005: TOTAL   CHARGE IN SPHERE  5 =        3.9064263
:CTO006: TOTAL   CHARGE IN SPHERE  6 =        3.9116925
:CTO007: TOTAL   CHARGE IN SPHERE  7 =        3.9099418
:CTO008: TOTAL   CHARGE IN SPHERE  8 =        3.9078058
:CTO009: TOTAL   CHARGE IN SPHERE  9 =        3.9072311
:CTO010: TOTAL   CHARGE IN SPHERE 10 =        3.9076522
:CTO011: TOTAL   CHARGE IN SPHERE 11 =        3.9077496
:CTO012: TOTAL   CHARGE IN SPHERE 12 =        3.9079865
:CTO013: TOTAL   CHARGE IN SPHERE 13 =        3.9081344

:NEC03: NUCLEAR AND ELECTRONIC CHARGE    294.00000   294.00000


:ENE  : *WARNING** TOTAL ENERGY IN Ry =        -3715.32386336

       TOTAL FORCE IN mRy/a.u. = |F|     Fx             Fy             Fz     with/without FOR in case.in2
:FOR001:   1.ATOM        489.798          0.000          0.000        489.798 partial forces
:FOR002:   2.ATOM         24.831         24.058         -6.148          0.000 partial forces
:FOR003:   3.ATOM         29.985        -28.479         -9.382          0.000 partial forces
:FOR004:   4.ATOM          5.980          0.815          5.924          0.000 partial forces
:FOR005:   5.ATOM          2.750          0.000          0.000         -2.750 partial forces
:FOR006:   6.ATOM          1.379          0.000          0.000          1.379 partial forces
:FOR007:   7.ATOM          8.374          0.000          0.000          8.374 partial forces
:FOR008:   8.ATOM         12.136          0.000          0.000         12.136 partial forces
:FOR009:   9.ATOM          1.970          0.000          0.000         -1.970 partial forces
:FOR010:  10.ATOM          0.210          0.000          0.000          0.210 partial forces
:FOR011:  11.ATOM          1.774          0.000          0.000          1.774 partial forces
:FOR012:  12.ATOM          6.057          5.062         -3.327          0.000 partial forces
:FOR013:  13.ATOM          0.000          0.000          0.000          0.000 partial forces

       TOTAL FORCE WITH RESPECT TO GLOBAL CARTESIAN COORDINATES:
:FCA001:   1.ATOM                       244.899       -424.178          0.000 partial forces
:FCA002:   2.ATOM                        24.058         -6.148          0.000 partial forces
:FCA003:   3.ATOM                       -28.479         -9.382          0.000 partial forces
:FCA004:   4.ATOM                         0.815          5.924          0.000 partial forces
:FCA005:   5.ATOM                        -1.375         -2.382          0.000 partial forces
:FCA006:   6.ATOM                         0.690          1.195          0.000 partial forces
:FCA007:   7.ATOM                         8.374          0.000          0.000 partial forces
:FCA008:   8.ATOM                         6.068         10.510          0.000 partial forces
:FCA009:   9.ATOM                        -1.970          0.000          0.000 partial forces
:FCA010:  10.ATOM                         0.105          0.182          0.000 partial forces
:FCA011:  11.ATOM                         1.774          0.000          0.000 partial forces
:FCA012:  12.ATOM                         5.062         -3.327          0.000 partial forces
:FCA013:  13.ATOM                         0.000          0.000          0.000 partial forces

       TOTAL FORCE WITH RESPECT TO THE GLOBAL COORDINATE SYSTEM:
:FGL001:   1.ATOM               282.785151786  -282.785151786     0.000000000 partial forces
:FGL002:   2.ATOM                27.779868199     7.741986669     0.000000000 partial forces
:FGL003:   3.ATOM               -32.885199118   -25.824707733     0.000000000 partial forces
:FGL004:   4.ATOM                 0.941275057     6.395121822     0.000000000 partial forces
:FGL005:   5.ATOM                -1.587860747    -3.175721494     0.000000000 partial forces
:FGL006:   6.ATOM                 0.796435460     1.592870919     0.000000000 partial forces
:FGL007:   7.ATOM                 9.668979851     4.834489926     0.000000000 partial forces
:FGL008:   8.ATOM                 7.006497186    14.012994373     0.000000000 partial forces
:FGL009:   9.ATOM                -2.275238354    -1.137619177     0.000000000 partial forces
:FGL010:  10.ATOM                 0.121218991     0.242437982     0.000000000 partial forces
:FGL011:  11.ATOM                 2.047869683     1.023934841     0.000000000 partial forces
:FGL012:  12.ATOM                 5.844862869    -0.404328224     0.000000000 partial forces
:FGL013:  13.ATOM                 0.000000000     0.000000000     0.000000000 partial forces


            ---------
:ITE002:  2. ITERATION
            ---------

:NATO :   13 INDEPENDENT AND   49 TOTAL ATOMS IN UNITCELL
       SUBSTANCE: graphene                                                    

       LATTICE                      = H   
:POT  : POTENTIAL OPTION   19
:LAT  : LATTICE CONSTANTS= 23.23903 23.23903 37.79454
:VOL  : UNIT CELL VOLUME =   17676.47510
       MODE OF CALCULATION IS       = RELA
       NON-SPINPOLARIZED CALCULATION
:IFFT  : FFT-parameters:  240  240  400 Factor: 2.00
       ATOMNUMBER=  1 C 1        VCOUL-ZERO = -0.13171E+01
:EFG001:                        EFG         =     1.16464   *10**21  V / m**2
                               V20  TOT/SRF=    -0.04997    -0.28145
                               V22  TOT/SRF=    -1.13579    -1.67314
                               V22M TOT/SRF=     0.00000     0.00000
                               V21  TOT/SRF=     0.00000     0.00000
                               V21M TOT/SRF=     0.00000     0.00000

             -1.10694    0.00000    0.00000       -1.10694    0.00000    0.00000
              0.00000    1.16464    0.00000        0.00000    1.16464    0.00000
              0.00000    0.00000   -0.05770        0.00000    0.00000   -0.05770

         MAIN DIRECTIONS OF THE EFG   1.0000  0.0000  0.0000
                                      0.0000  1.0000  0.0000
                                      0.0000  0.0000  1.0000
:ANG001:  ANGLE WITH OLD X-AXIS =         0.0

:ETA001:                         ASYMM. ETA =     0.90091


       ATOMNUMBER=  2 C 2        VCOUL-ZERO = -0.14144E+01
:EFG002:                        EFG         =    -1.44660   *10**21  V / m**2
                               V20  TOT/SRF=    -1.25280    -1.83200
                               V22  TOT/SRF=    -0.08574    -0.13404
                               V22M TOT/SRF=    -0.02090    -0.01752
                               V21  TOT/SRF=     0.00000     0.00000
                               V21M TOT/SRF=     0.00000     0.00000

              0.63756   -0.02090    0.00000        0.63505    0.00000    0.00000
             -0.02090    0.80904    0.00000        0.00000    0.81155    0.00000
              0.00000    0.00000   -1.44660        0.00000    0.00000   -1.44660

         MAIN DIRECTIONS OF THE EFG   1.0000 -0.1201  0.0000
                                      0.1201  1.0000  0.0000
                                      0.0000  0.0000  1.0000
:ANG002:  ANGLE WITH OLD X-AXIS =         6.8

:ETA002:                         ASYMM. ETA =     0.12201


       ATOMNUMBER=  3 C 3        VCOUL-ZERO = -0.14087E+01
:EFG003:                        EFG         =    -1.41865   *10**21  V / m**2
                               V20  TOT/SRF=    -1.22859    -1.81030
                               V22  TOT/SRF=    -0.04104    -0.07268
                               V22M TOT/SRF=     0.01548     0.02486
                               V21  TOT/SRF=     0.00000     0.00000
                               V21M TOT/SRF=     0.00000     0.00000

              0.66828    0.01548    0.00000        0.66546    0.00000    0.00000
              0.01548    0.75037    0.00000        0.00000    0.75319    0.00000
              0.00000    0.00000   -1.41865        0.00000    0.00000   -1.41865

         MAIN DIRECTIONS OF THE EFG   1.0000  0.1823  0.0000
                                     -0.1823  1.0000  0.0000
                                      0.0000  0.0000  1.0000
:ANG003:  ANGLE WITH OLD X-AXIS =        10.3

:ETA003:                         ASYMM. ETA =     0.06184


       ATOMNUMBER=  4 C 4        VCOUL-ZERO = -0.14118E+01
:EFG004:                        EFG         =    -1.43140   *10**21  V / m**2
                               V20  TOT/SRF=    -1.23963    -1.83661
                               V22  TOT/SRF=    -0.00980    -0.01455
                               V22M TOT/SRF=     0.01200     0.01982
                               V21  TOT/SRF=     0.00000     0.00000
                               V21M TOT/SRF=     0.00000     0.00000

              0.70590    0.01200    0.00000        0.70020    0.00000    0.00000
              0.01200    0.72550    0.00000        0.00000    0.73119    0.00000
              0.00000    0.00000   -1.43140        0.00000    0.00000   -1.43140

         MAIN DIRECTIONS OF THE EFG   1.0000  0.4746  0.0000
                                     -0.4746  1.0000  0.0000
                                      0.0000  0.0000  1.0000
:ANG004:  ANGLE WITH OLD X-AXIS =        25.4

:ETA004:                         ASYMM. ETA =     0.02165


       ATOMNUMBER=  5 C 5        VCOUL-ZERO = -0.14109E+01
:EFG005:                        EFG         =    -1.43759   *10**21  V / m**2
                               V20  TOT/SRF=     0.62895     0.92807
                               V22  TOT/SRF=    -1.07447    -1.58316
                               V22M TOT/SRF=     0.00000     0.00000
                               V21  TOT/SRF=     0.00000     0.00000
                               V21M TOT/SRF=     0.00000     0.00000

             -1.43759    0.00000    0.00000       -1.43759    0.00000    0.00000
              0.00000    0.71134    0.00000        0.00000    0.71134    0.00000
              0.00000    0.00000    0.72625        0.00000    0.00000    0.72625

         MAIN DIRECTIONS OF THE EFG   1.0000  0.0000  0.0000
                                      0.0000  1.0000  0.0000
                                      0.0000  0.0000  1.0000
:ANG005:  ANGLE WITH OLD X-AXIS =         0.0

:ETA005:                         ASYMM. ETA =     0.01037


       ATOMNUMBER=  6 C 6        VCOUL-ZERO = -0.14184E+01
:EFG006:                        EFG         =    -1.49782   *10**21  V / m**2
                               V20  TOT/SRF=     0.67045     0.97452
                               V22  TOT/SRF=    -1.11073    -1.59645
                               V22M TOT/SRF=     0.00000     0.00000
                               V21  TOT/SRF=     0.00000     0.00000
                               V21M TOT/SRF=     0.00000     0.00000

             -1.49782    0.00000    0.00000       -1.49782    0.00000    0.00000
              0.00000    0.72365    0.00000        0.00000    0.72365    0.00000
              0.00000    0.00000    0.77417        0.00000    0.00000    0.77417

         MAIN DIRECTIONS OF THE EFG   1.0000  0.0000  0.0000
                                      0.0000  1.0000  0.0000
                                      0.0000  0.0000  1.0000
:ANG006:  ANGLE WITH OLD X-AXIS =         0.0

:ETA006:                         ASYMM. ETA =     0.03373


       ATOMNUMBER=  7 C 7        VCOUL-ZERO = -0.14164E+01
:EFG007:                        EFG         =    -1.45427   *10**21  V / m**2
                               V20  TOT/SRF=     0.61631     0.90933
                               V22  TOT/SRF=    -1.09844    -1.62085
                               V22M TOT/SRF=     0.00000     0.00000
                               V21  TOT/SRF=     0.00000     0.00000
                               V21M TOT/SRF=     0.00000     0.00000

             -1.45427    0.00000    0.00000       -1.45427    0.00000    0.00000
              0.00000    0.74261    0.00000        0.00000    0.74261    0.00000
              0.00000    0.00000    0.71166        0.00000    0.00000    0.71166

         MAIN DIRECTIONS OF THE EFG   1.0000  0.0000  0.0000
                                      0.0000  1.0000  0.0000
                                      0.0000  0.0000  1.0000
:ANG007:  ANGLE WITH OLD X-AXIS =         0.0

:ETA007:                         ASYMM. ETA =     0.02129


       ATOMNUMBER=  8 C 8        VCOUL-ZERO = -0.14128E+01
:EFG008:                        EFG         =    -1.43496   *10**21  V / m**2
                               V20  TOT/SRF=     0.64029     0.95046
                               V22  TOT/SRF=    -1.06529    -1.58081
                               V22M TOT/SRF=     0.00000     0.00000
                               V21  TOT/SRF=     0.00000     0.00000
                               V21M TOT/SRF=     0.00000     0.00000

             -1.43496    0.00000    0.00000       -1.43496    0.00000    0.00000
              0.00000    0.69561    0.00000        0.00000    0.69561    0.00000
              0.00000    0.00000    0.73935        0.00000    0.00000    0.73935

         MAIN DIRECTIONS OF THE EFG   1.0000  0.0000  0.0000
                                      0.0000  1.0000  0.0000
                                      0.0000  0.0000  1.0000
:ANG008:  ANGLE WITH OLD X-AXIS =         0.0

:ETA008:                         ASYMM. ETA =     0.03048


       ATOMNUMBER=  9 C 9        VCOUL-ZERO = -0.14119E+01
:EFG009:                        EFG         =    -1.44020   *10**21  V / m**2
                               V20  TOT/SRF=     0.62105     0.91547
[...]
 
       LMMAX 16
       LM=   0 0  1 0  2 0  2 2  3 0  3 2  4 0  4 2  4 4  5 0  5 2  5 4  6 0  6 2  6 4  6 6
 
:CHA010: TOTAL VALENCE CHARGE INSIDE SPHERE  10 =     1.983952
:PCS010: PARTIAL CHARGES SPHERE = 10 S,P,D,F,PX,PY,PZ,D-Z2,D-X2Y2,D-XY,D-XZ,D-YZ
:QTL010: 0.6461 1.3028 0.0308 0.0043 0.3425 0.4800 0.4800 0.0093 0.0051 0.0027 0.0027 0.0109
        Q-s-low E-s-low   Q-p-low E-p-low   Q-d-low E-d-low   Q-f-low E-f-low
:EPL010:  0.0000 10.0000    0.0000 10.0000    0.0000 10.0000    0.0000 10.0000
        Q-s-hi  E-s-hi    Q-p-hi  E-p-hi    Q-d-hi  E-d-hi    Q-f-hi  E-f-hi
:EPH010:  0.6461 -1.2707    1.3028 -0.7223    0.0308 -0.7541    0.0043 -0.8490
 
                      VXX         VYY         VZZ       UP TO R
 
:VZZ010:             4.62110    -2.30580    -2.31529       1.320
 
 
 
 
:POS011: ATOM  -11 POSITION = 0.86667 0.93333 0.00000  MULTIPLICITY = 3  ZZ=  6.000  C 11
 
       LMMAX 16
       LM=   0 0  1 0  2 0  2 2  3 0  3 2  4 0  4 2  4 4  5 0  5 2  5 4  6 0  6 2  6 4  6 6
 
:CHA011: TOTAL VALENCE CHARGE INSIDE SPHERE  11 =     1.982951
:PCS011: PARTIAL CHARGES SPHERE = 11 S,P,D,F,PX,PY,PZ,D-Z2,D-X2Y2,D-XY,D-XZ,D-YZ
:QTL011: 0.6463 1.3012 0.0308 0.0043 0.3402 0.4800 0.4810 0.0087 0.0051 0.0027 0.0028 0.0109
        Q-s-low E-s-low   Q-p-low E-p-low   Q-d-low E-d-low   Q-f-low E-f-low
:EPL011:  0.0000 10.0000    0.0000 10.0000    0.0000 10.0000    0.0000 10.0000
        Q-s-hi  E-s-hi    Q-p-hi  E-p-hi    Q-d-hi  E-d-hi    Q-f-hi  E-f-hi
:EPH011:  0.6463 -1.2632    1.3012 -0.7154    0.0308 -0.7416    0.0043 -0.8396
 
                      VXX         VYY         VZZ       UP TO R
 
:VZZ011:             4.70376    -2.31811    -2.38563       1.320
 
 
 
 
:POS012: ATOM  -12 POSITION = 0.79998 0.80007 0.00000  MULTIPLICITY = 6  ZZ=  6.000  C 12
 
       LMMAX 28
       LM=   0 0  1 1 -1 1  2 0  2 2 -2 2  3 1 -3 1  3 3 -3 3  4 0  4 2 -4 2  4 4 -4 4  5 1 -5 1
         5 3 -5 3  5 5 -5 5  6 0  6 2 -6 2  6 4 -6 4  6 6 -6 6
 
:CHA012: TOTAL VALENCE CHARGE INSIDE SPHERE  12 =     1.986361
:PCS012: PARTIAL CHARGES SPHERE = 12 S,P,D,F,PX,PY,PZ,D-Z2,D-X2Y2,D-XY,D-XZ,D-YZ
:QTL012: 0.6455 1.3057 0.0307 0.0042 0.4789 0.4793 0.3478 0.0031 0.0115 0.0109 0.0023 0.0023
        Q-s-low E-s-low   Q-p-low E-p-low   Q-d-low E-d-low   Q-f-low E-f-low
:EPL012:  0.0000 10.0000    0.0000 10.0000    0.0000 10.0000    0.0000 10.0000
        Q-s-hi  E-s-hi    Q-p-hi  E-p-hi    Q-d-hi  E-d-hi    Q-f-hi  E-f-hi
:EPH012:  0.6455 -1.2657    1.3057 -0.7148    0.0307 -0.7524    0.0042 -0.8477
 
                      QXX         QXY         QYY         QZZ       UP TO R
 
:VZZ012:            -2.19092    -0.05252    -2.21530     4.40622       1.320
 
 
 
 
:POS013: ATOM  -13 POSITION = 0.00000 0.00000 0.00000  MULTIPLICITY = 1  ZZ=  6.000  C 13
 
       LMMAX  7
       LM=   0 0  2 0  3 3  4 0  5 3  6 0  6 6
 
:CHA013: TOTAL VALENCE CHARGE INSIDE SPHERE  13 =     1.988238
:PCS013: PARTIAL CHARGES SPHERE = 13 S,P,D,F,PZ,PXY, D-Z2,D-XY,X2Y2,D-XZ,YZ
:QTL013: 0.6441 1.3091 0.0307 0.0042 0.3533 0.9558 0.0000 0.0031 0.0223 0.0053 0.0000 0.0000
        Q-s-low E-s-low   Q-p-low E-p-low   Q-d-low E-d-low   Q-f-low E-f-low
:EPL013:  0.0000 10.0000    0.0000 10.0000    0.0000 10.0000    0.0000 10.0000
        Q-s-hi  E-s-hi    Q-p-hi  E-p-hi    Q-d-hi  E-d-hi    Q-f-hi  E-f-hi
:EPH013:  0.6441 -1.2592    1.3091 -0.7055    0.0307 -0.7479    0.0042 -0.8440
:VZZ013: EFG INSIDE SPHERE  13 =     4.179409      UP TO R =   1.32000
 
:CHA  : TOTAL VALENCE CHARGE INSIDE UNIT CELL =     196.000001
 
:SUM  : SUM OF EIGENVALUES =        -172.878814924
 

        1.ATOM      C 1                   1 CORE STATES
       CORE-FORCE in mRy/a.u. = |F|      Fx             Fy             Fz
:FCO001:   1.ATOM    162.669642063      0.000000000      0.000000000    162.669642063

:1S 001: 1S                 -19.801272119 Ry

        2.ATOM      C 2                   1 CORE STATES
       CORE-FORCE in mRy/a.u. = |F|      Fx             Fy             Fz
:FCO002:   2.ATOM     21.130334783      2.302433654     21.004519687      0.000000000

:1S 002: 1S                 -19.739628024 Ry

        3.ATOM      C 3                   1 CORE STATES
       CORE-FORCE in mRy/a.u. = |F|      Fx             Fy             Fz
:FCO003:   3.ATOM     35.420355119    -35.172246808     -4.185046151      0.000000000

:1S 003: 1S                 -19.734648814 Ry

        4.ATOM      C 4                   1 CORE STATES
       CORE-FORCE in mRy/a.u. = |F|      Fx             Fy             Fz
:FCO004:   4.ATOM     13.673593356     -0.955115308     13.640194648      0.000000000

:1S 004: 1S                 -19.721544190 Ry

        5.ATOM      C 5                   1 CORE STATES
       CORE-FORCE in mRy/a.u. = |F|      Fx             Fy             Fz
:FCO005:   5.ATOM      5.143045286      0.000000000      0.000000000     -5.143045286

:1S 005: 1S                 -19.719944615 Ry

        6.ATOM      C 6                   1 CORE STATES
       CORE-FORCE in mRy/a.u. = |F|      Fx             Fy             Fz
:FCO006:   6.ATOM     13.589930804      0.000000000      0.000000000    -13.589930804

:1S 006: 1S                 -19.705250019 Ry

        7.ATOM      C 7                   1 CORE STATES
       CORE-FORCE in mRy/a.u. = |F|      Fx             Fy             Fz
:FCO007:   7.ATOM      1.359609786      0.000000000      0.000000000      1.359609786

:1S 007: 1S                 -19.720622521 Ry

        8.ATOM      C 8                   1 CORE STATES
       CORE-FORCE in mRy/a.u. = |F|      Fx             Fy             Fz
:FCO008:   8.ATOM      6.311647432      0.000000000      0.000000000      6.311647432

:1S 008: 1S                 -19.714729210 Ry

        9.ATOM      C 9                   1 CORE STATES
       CORE-FORCE in mRy/a.u. = |F|      Fx             Fy             Fz
:FCO009:   9.ATOM      6.547104304      0.000000000      0.000000000     -6.547104304

:1S 009: 1S                 -19.718088811 Ry

       10.ATOM      C 10                  1 CORE STATES
       CORE-FORCE in mRy/a.u. = |F|      Fx             Fy             Fz
:FCO010:  10.ATOM      0.350266289      0.000000000      0.000000000     -0.350266289

:1S 010: 1S                 -19.718109180 Ry

       11.ATOM      C 11                  1 CORE STATES
       CORE-FORCE in mRy/a.u. = |F|      Fx             Fy             Fz
:FCO011:  11.ATOM      4.469117530      0.000000000      0.000000000     -4.469117530

:1S 011: 1S                 -19.711775462 Ry

       12.ATOM      C 12                  1 CORE STATES
       CORE-FORCE in mRy/a.u. = |F|      Fx             Fy             Fz
:FCO012:  12.ATOM      5.275516518     -3.249696056     -4.155785133      0.000000000

:1S 012: 1S                 -19.710617394 Ry

       13.ATOM      C 13                  1 CORE STATES
:1S 013: 1S                 -19.700913149 Ry
:CINT Core integral, Spin Up atom    1      1.99975932
:CINT Core integral, Spin Up atom    2      1.99975452
:CINT Core integral, Spin Up atom    3      1.99975444
:CINT Core integral, Spin Up atom    4      1.99975407
:CINT Core integral, Spin Up atom    5      1.99975405
:CINT Core integral, Spin Up atom    6      1.99975357
:CINT Core integral, Spin Up atom    7      1.99975385
:CINT Core integral, Spin Up atom    8      1.99975404
:CINT Core integral, Spin Up atom    9      1.99975397
:CINT Core integral, Spin Up atom   10      1.99975397
:CINT Core integral, Spin Up atom   11      1.99975401
:CINT Core integral, Spin Up atom   12      1.99975389
:CINT Core integral, Spin Up atom   13      1.99975381

       DENSITY AT NUCLEUS
        JATOM    VALENCE       SEMI-CORE            CORE           TOTAL
:RTO001:   1        4.754971        0.000000      122.811022      127.565993
:RTO002:   2        4.608880        0.000000      122.765168      127.374047
:RTO003:   3        4.608275        0.000000      122.763684      127.371959
:RTO004:   4        4.606790        0.000000      122.759037      127.365827
:RTO005:   5        4.605034        0.000000      122.758790      127.363824
:RTO006:   6        4.605795        0.000000      122.752308      127.358103
:RTO007:   7        4.610156        0.000000      122.755724      127.365880
:RTO008:   8        4.610608        0.000000      122.758560      127.369168
:RTO009:   9        4.604179        0.000000      122.757793      127.361972
:RTO010:  10        4.607977        0.000000      122.757655      127.365632
:RTO011:  11        4.610069        0.000000      122.758170      127.368239
:RTO012:  12        4.601897        0.000000      122.756915      127.358812
:RTO013:  13        4.590505        0.000000      122.756825      127.347330
     
       CHARGES OF NEW CHARGE DENSITY
:NTO  : TOTAL   INTERSTITIAL CHARGE=   99.4285735
:NTO001: TOTAL   CHARGE IN SPHERE  1 =        3.8157358
:NTO002: TOTAL   CHARGE IN SPHERE  2 =        3.9687705
:NTO003: TOTAL   CHARGE IN SPHERE  3 =        3.9705353
:NTO004: TOTAL   CHARGE IN SPHERE  4 =        3.9808458
:NTO005: TOTAL   CHARGE IN SPHERE  5 =        3.9819017
:NTO006: TOTAL   CHARGE IN SPHERE  6 =        3.9936344
:NTO007: TOTAL   CHARGE IN SPHERE  7 =        3.9873814
:NTO008: TOTAL   CHARGE IN SPHERE  8 =        3.9820948
:NTO009: TOTAL   CHARGE IN SPHERE  9 =        3.9841075
:NTO010: TOTAL   CHARGE IN SPHERE 10 =        3.9837060
:NTO011: TOTAL   CHARGE IN SPHERE 11 =        3.9827047
:NTO012: TOTAL   CHARGE IN SPHERE 12 =        3.9861154
:NTO013: TOTAL   CHARGE IN SPHERE 13 =        3.9879910

:NEC01: NUCLEAR AND ELECTRONIC CHARGE    294.00000   293.98797
     
       CHARGES OF OLD CHARGE DENSITY
:OTO  : TOTAL   INTERSTITIAL CHARGE=   99.4333617
:OTO001: TOTAL   CHARGE IN SPHERE  1 =        3.8217551
:OTO002: TOTAL   CHARGE IN SPHERE  2 =        3.9693125
:OTO003: TOTAL   CHARGE IN SPHERE  3 =        3.9704491
:OTO004: TOTAL   CHARGE IN SPHERE  4 =        3.9808174
:OTO005: TOTAL   CHARGE IN SPHERE  5 =        3.9813057
:OTO006: TOTAL   CHARGE IN SPHERE  6 =        3.9928164
:OTO007: TOTAL   CHARGE IN SPHERE  7 =        3.9872444
:OTO008: TOTAL   CHARGE IN SPHERE  8 =        3.9819459
:OTO009: TOTAL   CHARGE IN SPHERE  9 =        3.9834312
:OTO010: TOTAL   CHARGE IN SPHERE 10 =        3.9835686
:OTO011: TOTAL   CHARGE IN SPHERE 11 =        3.9825652
:OTO012: TOTAL   CHARGE IN SPHERE 12 =        3.9853798
:OTO013: TOTAL   CHARGE IN SPHERE 13 =        3.9869880

:NEC02: NUCLEAR AND ELECTRONIC CHARGE    294.00000   294.00000
     
       CONVERGENCE TEST
:DTO001: TOTAL   DIFFERENCE CHARGE**2 IN SPHERE  1 =  0.0072438
:DTO002: TOTAL   DIFFERENCE CHARGE**2 IN SPHERE  2 =  0.0006451
:DTO003: TOTAL   DIFFERENCE CHARGE**2 IN SPHERE  3 =  0.0001781
:DTO004: TOTAL   DIFFERENCE CHARGE**2 IN SPHERE  4 =  0.0000624
:DTO005: TOTAL   DIFFERENCE CHARGE**2 IN SPHERE  5 =  0.0007188
:DTO006: TOTAL   DIFFERENCE CHARGE**2 IN SPHERE  6 =  0.0009840
:DTO007: TOTAL   DIFFERENCE CHARGE**2 IN SPHERE  7 =  0.0001611
:DTO008: TOTAL   DIFFERENCE CHARGE**2 IN SPHERE  8 =  0.0001728
:DTO009: TOTAL   DIFFERENCE CHARGE**2 IN SPHERE  9 =  0.0008096
:DTO010: TOTAL   DIFFERENCE CHARGE**2 IN SPHERE 10 =  0.0001601
:DTO011: TOTAL   DIFFERENCE CHARGE**2 IN SPHERE 11 =  0.0001617
:DTO012: TOTAL   DIFFERENCE CHARGE**2 IN SPHERE 12 =  0.0008796
:DTO013: TOTAL   DIFFERENCE CHARGE**2 IN SPHERE 13 =  0.0011994

:DIS  :  CHARGE DISTANCE       ( 0.0072438 for atom    1 spin 1)      0.0008781
:BIG check (qbig,qrms,qtot)    0.241D-02   0.133D-02   0.878D-03
 
******************************************************
* MULTISECANT MIXING VER4 RELEASE 5.3 OPTIONS        *
* Unpredicted Step Limit   0.150000                  *
* Plane Wave Dynamic Rescaling                       *
* Dynamic Regularization Active                      *
* Upper Cutoff Lambda  1.0E-01 Lower 2.5E-04         *
* SQRT Multiplicity/Degeneracy                       *
* Trust Region Control Active                        *
* Max Number of Memory Steps    8                    *
******************************************************
 
 :WARNING: Number of PWs changed, you may want to restart broyden after iteratio
 n          39        6739        6695
:PLANE:  INTERSTITIAL TOTAL      4.70134 DISTAN  1.102E-01 % 
:CHARG:  CLM CHARGE   /ATOM     10.33951 DISTAN  3.752E-02 % 
 Step History
 1  1.5876E-01  9.9302E-01  1.7815E-03  1.0000E+00
 2  1.5926E-01  9.5463E-01  1.4579E-03  1.0000E+00
 3  1.6320E-01  1.0084E+00  2.0776E-03  1.0000E+00
 4  1.6452E-01  1.0097E+00  1.7583E-03  1.0000E+00
 5  1.6436E-01  9.8742E-01  1.4061E-03  1.0000E+00
 6  1.6532E-01  1.0807E+00  3.3945E-03  1.0000E+00
 7  1.5939E-01  9.5293E-01  8.3104E-04  1.0000E+00
 8  1.6014E-01  9.5293E-01  1.6749E-03  1.0000E+00
:INFO :  Number of Memory Steps    8 Skipping   31

SY Eigenvalues and Diagonal & YY Eigenvalues
   #     SY Real        SY Imag        Diagonal       YY Eign      SY+YY Real      SY+YY Imag
   1   1.283375E+00   0.000000E+00   1.504546E-02   7.996045E+00   9.280907E+00   0.000000E+00
   2   8.693788E-04   0.000000E+00   1.297427E-02   3.022765E-03   2.746598E-03   0.000000E+00
   3   1.661780E-04   0.000000E+00   3.002626E-01   5.834249E-04   1.006039E-03   0.000000E+00
   4   3.729616E-05   0.000000E+00   3.088526E-01   3.117999E-04  -2.390895E-04   0.000000E+00
   5   2.876747E-06   0.000000E+00   3.080683E-01   3.673603E-05   3.033560E-05   0.000000E+00
   6   7.081551E-08   0.000000E+00   3.056869E-01   6.003373E-09  -1.097343E-06   0.000000E+00
   7  -4.289081E-09   6.428446E-09   2.401130E-02   1.744890E-07   7.878321E-09   0.000000E+00
   8  -4.289081E-09  -6.428446E-09   9.548943E-03   1.112489E-07   3.348506E-07   0.000000E+00
 
:INFO : <Y>/<S>   0.388D+01  0.623D+01
:INFO :   Ratio Explained   1.198E-06
Expected diagonalization  2.5000E-04  2.5000E-04
:INFO :  Singular value   9.354E+00 Weight   1.000E+00 Projections   1.416E-02 -2.523E-02
:INFO :  Singular value   3.265E-03 Weight   9.942E-01 Projections   1.405E-02 -1.330E-02
:INFO :  Singular value   1.977E-03 Weight   9.843E-01 Projections   5.763E-03 -7.244E-03
:INFO :  Singular value   2.093E-04 Weight   4.120E-01 Projections   6.399E-03  8.095E-03
:INFO :  Singular value   1.669E-05 Weight   4.438E-03 Projections  -3.418E-03 -4.038E-05
:INFO :  Singular value   2.380E-06 Weight   9.062E-05 Projections   5.502E-03  1.891E-08
:INFO :  Singular value   1.385E-07 Weight   3.069E-07 Projections   1.472E-02  2.353E-08
:INFO :  Singular value   7.747E-09 Weight   9.602E-10 Projections   1.418E-02  9.251E-12
:INFOA :   Angle/Mag Pratt to MSEC Cauchy   179.02  5.239E+00
:INFOA :   Angle/Mag Pratt to MSR1 Cauchy   179.80  1.738E+02
:INFOA :   Angle     MSEC  to MSR1 Cauchy     1.00
:INFO :  Bounds         0.160D+00  0.200D+00  0.276D+02  0.160D+00
:DIRM :  MEMORY 8/8 RESCALE   9.74 RED 1.011 PRED 0.002 NEXT 0.005 COND 1.17E+00
:INFOA :   Angle     MSEC  to MSR1 Full       0.55
Limited by Atoms F by Step F
:DIRP :  |MSR1|= 4.196E-03 |PRATT|= 5.045E-02 ANGLE=  31.8 DEGREES
:DIRQ :  |MSR1|= 4.597E-03 |PRATT|= 5.044E-02 ANGLE=  33.4 DEGREES
:DIR  :  |MSR1|= 6.224E-03 |PRATT|= 7.134E-02 ANGLE=  32.7 DEGREES
:MIX  :   MSR1   REGULARIZATION: 2.50E-04  GREED: 0.160  Newton 1.000                
     
       CHARGES OF MIXED CHARGE DENSITY
:CTO  : TOTAL   INTERSTITIAL CHARGE=   99.4342173
:CTO001: TOTAL   CHARGE IN SPHERE  1 =        3.8216275
:CTO002: TOTAL   CHARGE IN SPHERE  2 =        3.9692741
:CTO003: TOTAL   CHARGE IN SPHERE  3 =        3.9704316
:CTO004: TOTAL   CHARGE IN SPHERE  4 =        3.9807977
:CTO005: TOTAL   CHARGE IN SPHERE  5 =        3.9813107
:CTO006: TOTAL   CHARGE IN SPHERE  6 =        3.9928339
:CTO007: TOTAL   CHARGE IN SPHERE  7 =        3.9872310
:CTO008: TOTAL   CHARGE IN SPHERE  8 =        3.9819295
:CTO009: TOTAL   CHARGE IN SPHERE  9 =        3.9834431
:CTO010: TOTAL   CHARGE IN SPHERE 10 =        3.9835506
:CTO011: TOTAL   CHARGE IN SPHERE 11 =        3.9825499
:CTO012: TOTAL   CHARGE IN SPHERE 12 =        3.9853890
:CTO013: TOTAL   CHARGE IN SPHERE 13 =        3.9869995

:NEC03: NUCLEAR AND ELECTRONIC CHARGE    294.00000   294.00000


:ENE  : *WARNING** TOTAL ENERGY IN Ry =        -3714.22707465

       TOTAL FORCE IN mRy/a.u. = |F|     Fx             Fy             Fz     with/without FOR in case.in2
:FOR001:   1.ATOM         25.514          0.000          0.000        -25.514 partial forces
:FOR002:   2.ATOM         50.639        -50.440          4.484          0.000 partial forces
:FOR003:   3.ATOM         10.745         -0.018         10.745          0.000 partial forces
:FOR004:   4.ATOM          6.459         -5.342         -3.632          0.000 partial forces
:FOR005:   5.ATOM          3.995          0.000          0.000          3.995 partial forces
:FOR006:   6.ATOM         34.481          0.000          0.000         34.481 partial forces
:FOR007:   7.ATOM          2.679          0.000          0.000         -2.679 partial forces
:FOR008:   8.ATOM          9.042          0.000          0.000         -9.042 partial forces
:FOR009:   9.ATOM          4.807          0.000          0.000          4.807 partial forces
:FOR010:  10.ATOM          0.712          0.000          0.000          0.712 partial forces
:FOR011:  11.ATOM          1.822          0.000          0.000          1.822 partial forces
:FOR012:  12.ATOM          3.336          1.849          2.777          0.000 partial forces
:FOR013:  13.ATOM          0.000          0.000          0.000          0.000 partial forces

       TOTAL FORCE WITH RESPECT TO GLOBAL CARTESIAN COORDINATES:
:FCA001:   1.ATOM                       -12.757         22.096          0.000 partial forces
:FCA002:   2.ATOM                       -50.440          4.484          0.000 partial forces
:FCA003:   3.ATOM                        -0.018         10.745          0.000 partial forces
:FCA004:   4.ATOM                        -5.342         -3.632          0.000 partial forces
:FCA005:   5.ATOM                         1.997          3.460          0.000 partial forces
:FCA006:   6.ATOM                        17.240         29.861          0.000 partial forces
:FCA007:   7.ATOM                        -2.679          0.000          0.000 partial forces
:FCA008:   8.ATOM                        -4.521         -7.830          0.000 partial forces
:FCA009:   9.ATOM                         4.807          0.000          0.000 partial forces
:FCA010:  10.ATOM                         0.356          0.617          0.000 partial forces
:FCA011:  11.ATOM                         1.822          0.000          0.000 partial forces
:FCA012:  12.ATOM                         1.849          2.777          0.000 partial forces
:FCA013:  13.ATOM                         0.000          0.000          0.000 partial forces

       TOTAL FORCE WITH RESPECT TO THE GLOBAL COORDINATE SYSTEM:
:FGL001:   1.ATOM               -14.730401938    14.730401938     0.000000000 partial forces
:FGL002:   2.ATOM               -58.243499725   -24.638181362     0.000000000 partial forces
:FGL003:   3.ATOM                -0.021082531    10.734075740     0.000000000 partial forces
:FGL004:   4.ATOM                -6.167839139    -6.715860148     0.000000000 partial forces
:FGL005:   5.ATOM                 2.306464760     4.612929521     0.000000000 partial forces
:FGL006:   6.ATOM                19.907344510    39.814689020     0.000000000 partial forces
:FGL007:   7.ATOM                -3.093407524    -1.546703762     0.000000000 partial forces
:FGL008:   8.ATOM                -5.220330972   -10.440661944     0.000000000 partial forces
:FGL009:   9.ATOM                 5.550214580     2.775107290     0.000000000 partial forces
:FGL010:  10.ATOM                 0.411008393     0.822016786     0.000000000 partial forces
:FGL011:  11.ATOM                 2.103331843     1.051665922     0.000000000 partial forces
:FGL012:  12.ATOM                 2.134990855     3.844057837     0.000000000 partial forces
:FGL013:  13.ATOM                 0.000000000     0.000000000     0.000000000 partial forces
