 argument  1 = 84.nw
                                         
                                         
 
 
             Northwest Computational Chemistry Package (NWChem) 6.1.1
             --------------------------------------------------------
 
 
                    Environmental Molecular Sciences Laboratory
                       Pacific Northwest National Laboratory
                                Richland, WA 99352
 
                              Copyright (c) 1994-2012
                       Pacific Northwest National Laboratory
                            Battelle Memorial Institute
 
             NWChem is an open-source computational chemistry package
                        distributed under the terms of the
                      Educational Community License (ECL) 2.0
             A copy of the license is included with this distribution
                              in the LICENSE.TXT file
 
                                  ACKNOWLEDGMENT
                                  --------------

            This software and its documentation were developed at the
            EMSL at Pacific Northwest National Laboratory, a multiprogram
            national laboratory, operated for the U.S. Department of Energy
            by Battelle under Contract Number DE-AC05-76RL01830. Support
            for this work was provided by the Department of Energy Office
            of Biological and Environmental Research, Office of Basic
            Energy Sciences, and the Office of Advanced Scientific Computing.


           Job information
           ---------------

    hostname      = node073
    program       = /scratch/gulans/nwchem/nwchem-6.1.1/bin/LINUX64/nwchem
    date          = Mon Dec 19 13:55:08 2016

    compiled      = Mon_Jun_17_17:31:16_2013
    source        = /scratch/gulans/nwchem/nwchem-6.1.1
    nwchem branch = 6.1.1
    input         = 84.nw
    prefix        = 84.
    data base     = ./84.db
    status        = restart
    nproc         =       16
    time left     =     -1s



           Memory information
           ------------------

    heap     =   13107201 doubles =    100.0 Mbytes
    stack    =   13107201 doubles =    100.0 Mbytes
    global   =   26214400 doubles =    200.0 Mbytes (distinct from heap & stack)
    total    =   52428802 doubles =    400.0 Mbytes
    verify   = yes
    hardfail = no 


           Directory information
           ---------------------
 
  0 permanent = .
  0 scratch   = .
 
 
           Previous task information
           -------------------------

    Theory    = dft                             
    Operation = energy                        
    Status    = ok                            
    Qmmm      = F
    Ignore    = F

 
           Geometries in the database
           --------------------------
 
       Name                              Natoms  Last Modified
       --------------------------------  ------  ------------------------
    1  geometry                               3  Mon Dec 19 13:33:50 2016  
 
  The geometry named "geometry" is the default for restart
 
 
 
           Basis sets in the database
           --------------------------
 
       Name                              Natoms  Last Modified
        --------------------------------  ------  ------------------------
    1  ao basis                               0  Mon Dec 19 13:33:50 2016  
    2  ecp basis                              4  Mon Dec 19 13:33:50 2016  
 
  The basis set named "ao basis" is the default AO basis for restart
 
 
 
 
                                NWChem Input Module
                                -------------------
 
 
                                        84
                                        --

 Scaling coordinates for geometry "geometry" by  1.889725989
 (inverse scale =  0.529177249)

 C2V symmetry detected
 
 
                             Geometry "geometry" -> ""
                             -------------------------
 
 Output coordinates in angstroms (scale by  1.889725989 to convert to a.u.)
 
  No.       Tag          Charge          X              Y              Z
 ---- ---------------- ---------- -------------- -------------- --------------
    1 O                    8.0000     0.00000000     0.00000000    -0.11722000
    2 H                    1.0000     0.75710000     0.00000000     0.46888000
    3 H                    1.0000    -0.75710000     0.00000000     0.46888000
 
      Atomic Mass 
      ----------- 
 
      O                 15.994910
      H                  1.007825
 

 Effective nuclear repulsion energy (a.u.)       9.1925717475

            Nuclear Dipole moment (a.u.) 
            ----------------------------
        X                 Y               Z
 ---------------- ---------------- ----------------
     0.0000000000     0.0000000000     0.0000000000
 
      Symmetry information
      --------------------
 
 Group name             C2v       
 Group number             16
 Group order               4
 No. of unique centers     2
 
      Symmetry unique atoms
 
     1    2
 
 
            XYZ format geometry
            -------------------
     3
 geometry
 O                     0.00000000     0.00000000    -0.11722000
 H                     0.75710000     0.00000000     0.46888000
 H                    -0.75710000     0.00000000     0.46888000
 
 ==============================================================================
                                internuclear distances
 ------------------------------------------------------------------------------
       center one      |      center two      | atomic units |  angstroms
 ------------------------------------------------------------------------------
    2 H                |   1 O                |     1.80932  |     0.95745
    3 H                |   1 O                |     1.80932  |     0.95745
 ------------------------------------------------------------------------------
                         number of included internuclear distances:          2
 ==============================================================================



 ==============================================================================
                                 internuclear angles
 ------------------------------------------------------------------------------
        center 1       |       center 2       |       center 3       |  degrees
 ------------------------------------------------------------------------------
    2 H                |   1 O                |   3 H                |   104.51
 ------------------------------------------------------------------------------
                            number of included internuclear angles:          1
 ==============================================================================





 Summary of "ao basis" -> "" (spherical)
 ------------------------------------------------------------------------------
       Tag                 Description            Shells   Functions and Types
 ---------------- ------------------------------  ------  ---------------------
 *                         Def2-QZVPP                 on all atoms 


                 ECP       "ecp basis" -> "" (cartesian)
                -----
  I (Iodine) Replaces    28 electrons
  -----------------------------------
          R-exponent    Exponent     Coefficients 
         ------------ ---------------------------------------------------------
  1 U L      2.00       19.458609     -21.842040
  1 U L      2.00       19.349260     -28.468191
  1 U L      2.00        4.823767      -0.243713
  1 U L      2.00        4.884315      -0.320804
 
  2 U-s      2.00       40.015835      49.994293
  2 U-s      2.00       17.429747     281.025317
  2 U-s      2.00        9.005484      61.573326
  2 U-s      2.00       19.458609      21.842040
  2 U-s      2.00       19.349260      28.468191
  2 U-s      2.00        4.823767       0.243713
  2 U-s      2.00        4.884315       0.320804
 
  3 U-p      2.00       15.355466      67.442841
  3 U-p      2.00       14.971833     134.881137
  3 U-p      2.00        8.960164      14.675051
  3 U-p      2.00        8.259096      29.375666
  3 U-p      2.00       19.458609      21.842040
  3 U-p      2.00       19.349260      28.468191
  3 U-p      2.00        4.823767       0.243713
  3 U-p      2.00        4.884315       0.320804
 
  4 U-d      2.00       15.068908      35.439529
  4 U-d      2.00       14.555322      53.176057
  4 U-d      2.00        6.718647       9.067195
  4 U-d      2.00        6.456393      13.206937
  4 U-d      2.00        1.191779       0.089335
  4 U-d      2.00        1.291157       0.052380
  4 U-d      2.00       19.458609      21.842040
  4 U-d      2.00       19.349260      28.468191
  4 U-d      2.00        4.823767       0.243713
  4 U-d      2.00        4.884315       0.320804
 
  Ag (Silver) Replaces    28 electrons
  ------------------------------------
          R-exponent    Exponent     Coefficients 
         ------------ ---------------------------------------------------------
  1 U L      2.00       14.220000     -33.689920
  1 U L      2.00        7.110000      -5.531120
 
  2 U-s      2.00       13.130000     255.139365
  2 U-s      2.00        6.510000      36.866122
  2 U-s      2.00       14.220000      33.689920
  2 U-s      2.00        7.110000       5.531120
 
  3 U-p      2.00       11.740000     182.181869
  3 U-p      2.00        6.200000      30.357751
  3 U-p      2.00       14.220000      33.689920
  3 U-p      2.00        7.110000       5.531120
 
  4 U-d      2.00       10.210000      73.719261
  4 U-d      2.00        4.380000      12.502117
  4 U-d      2.00       14.220000      33.689920
  4 U-d      2.00        7.110000       5.531120
 
  Xe (Xenon) Replaces    28 electrons
  -----------------------------------
          R-exponent    Exponent     Coefficients 
         ------------ ---------------------------------------------------------
  1 U L      2.00       20.881557     -23.089295
  1 U L      2.00       20.783443     -30.074475
  1 U L      2.00        5.253389      -0.288227
  1 U L      2.00        5.361188      -0.386924
 
  2 U-s      2.00       40.005184      49.997962
  2 U-s      2.00       17.812214     281.013303
  2 U-s      2.00        9.304150      61.538255
  2 U-s      2.00       20.881557      23.089295
  2 U-s      2.00       20.783443      30.074475
  2 U-s      2.00        5.253389       0.288227
  2 U-s      2.00        5.361188       0.386924
 
  3 U-p      2.00       15.701772      67.439142
  3 U-p      2.00       15.258608     134.874711
  3 U-p      2.00        9.292184      14.663300
  3 U-p      2.00        8.559003      29.354730
  3 U-p      2.00       20.881557      23.089295
  3 U-p      2.00       20.783443      30.074475
  3 U-p      2.00        5.253389       0.288227
  3 U-p      2.00        5.361188       0.386924
 
  4 U-d      2.00       15.185600      35.436908
  4 U-d      2.00       14.284500      53.195772
  4 U-d      2.00        7.121889       9.046232
  4 U-d      2.00        6.991963      13.223681
  4 U-d      2.00        0.623946       0.084853
  4 U-d      2.00        0.647284       0.044155
  4 U-d      2.00       20.881557      23.089295
  4 U-d      2.00       20.783443      30.074475
  4 U-d      2.00        5.253389       0.288227
  4 U-d      2.00        5.361188       0.386924
 
  Rb (Rubidium) Replaces    28 electrons
  --------------------------------------
          R-exponent    Exponent     Coefficients 
         ------------ ---------------------------------------------------------
  1 U L      2.00        3.843114     -12.316900
 
  2 U-s      2.00        5.036551      89.500198
  2 U-s      2.00        1.970849       0.493761
  2 U-s      2.00        3.843114      12.316900
 
  3 U-p      2.00        4.258341      58.568974
  3 U-p      2.00        1.470709       0.431791
  3 U-p      2.00        3.843114      12.316900
 
  4 U-d      2.00        3.023127      26.224898
  4 U-d      2.00        0.650383       0.962839
  4 U-d      2.00        3.843114      12.316900
 
 
                                 NWChem DFT Module
                                 -----------------
 
 
                                        84
 
 
                      Basis "ao basis" -> "ao basis" (spherical)
                      -----
  O (Oxygen)
  ----------
            Exponent  Coefficients 
       -------------- ---------------------------------------------------------
  1 S  1.16506469E+05  0.000040
  1 S  1.75043497E+04  0.000313
  1 S  3.99345132E+03  0.001634
  1 S  1.13300632E+03  0.006828
  1 S  3.69995696E+02  0.024124
  1 S  1.33620743E+02  0.072730
  1 S  5.20356436E+01  0.179344
  1 S  2.14619393E+01  0.330596
 
  2 S  8.98350513E+01  0.096469
  2 S  2.64280108E+01  0.941175
 
  3 S  9.28228246E+00  1.000000
 
  4 S  4.09477285E+00  1.000000
 
  5 S  1.32553491E+00  1.000000
 
  6 S  5.18772308E-01  1.000000
 
  7 S  1.97726765E-01  1.000000
 
  8 P  1.91152558E+02  0.002512
  8 P  4.52333567E+01  0.020039
  8 P  1.43534659E+01  0.093609
  8 P  5.24223718E+00  0.306181
  8 P  2.07924186E+00  0.678105
 
  9 P  8.42823714E-01  1.000000
 
 10 P  3.36176949E-01  1.000000
 
 11 P  1.28639980E-01  1.000000
 
 12 D  3.77500000E+00  1.000000
 
 13 D  1.30000000E+00  1.000000
 
 14 D  4.44000000E-01  1.000000
 
 15 F  2.66600000E+00  1.000000
 
 16 F  8.59000000E-01  1.000000
 
 17 G  1.84600000E+00  1.000000
 
  H (Hydrogen)
  ------------
            Exponent  Coefficients 
       -------------- ---------------------------------------------------------
  1 S  1.90691690E+02  0.000708
  1 S  2.86055320E+01  0.005468
  1 S  6.50959430E+00  0.027967
  1 S  1.84124550E+00  0.107645
 
  2 S  5.98537250E-01  1.000000
 
  3 S  2.13976240E-01  1.000000
 
  4 S  8.03162860E-02  1.000000
 
  5 P  2.29200000E+00  1.000000
 
  6 P  8.38000000E-01  1.000000
 
  7 P  2.92000000E-01  1.000000
 
  8 D  2.06200000E+00  1.000000
 
  9 D  6.62000000E-01  1.000000
 
 10 F  1.39700000E+00  1.000000
 


 Summary of "ao basis" -> "ao basis" (spherical)
 ------------------------------------------------------------------------------
       Tag                 Description            Shells   Functions and Types
 ---------------- ------------------------------  ------  ---------------------
 O                         Def2-QZVPP               17       57   7s4p3d2f1g
 H                         Def2-QZVPP               10       30   4s3p2d1f


  Caching 1-el integrals 
 
            General Information
            -------------------
          SCF calculation type: DFT
          Wavefunction type:  spin polarized.
          No. of atoms     :     3
          No. of electrons :    10
           Alpha electrons :     5
            Beta electrons :     5
          Charge           :     0
          Spin multiplicity:     1
          Use of symmetry is: on ; symmetry adaption is: on 
          Maximum number of iterations:  30
          This is a Direct SCF calculation.
          AO basis - number of functions:   117
                     number of shells:    37
          Convergence on energy requested: 1.00D-07
          Convergence on density requested: 1.00D-05
          Convergence on gradient requested: 5.00D-04
 
              XC Information
              --------------
                         PBE0 Method XC Functional
                     Hartree-Fock (Exact) Exchange  0.250          
          PerdewBurkeErnzerhof Exchange Functional  0.750          
            Perdew 1991 LDA Correlation Functional  1.000 local    
           PerdewBurkeErnz. Correlation Functional  1.000 non-local
 
             Grid Information
             ----------------
          Grid used for XC integration:  xfine     
          Radial quadrature: Mura-Knowles        
          Angular quadrature: Lebedev. 
          Tag              B.-S. Rad. Rad. Pts. Rad. Cut. Ang. Pts.
          ---              ---------- --------- --------- ---------
          O                   0.60      100           7.0      1454
          H                   0.35      100           8.0      1202
          Grid pruning is: on 
          Number of quadrature shells:   200
          Spatial weights used:  Erf1
 
          Convergence Information
          -----------------------
          Convergence aids based upon iterative change in 
          total energy or number of iterations. 
          Levelshifting, if invoked, occurs when the 
          HOMO/LUMO gap drops below (HL_TOL): 1.00D-02
          DIIS, if invoked, will attempt to extrapolate 
          using up to (NFOCK): 10 stored Fock matrices.

                    Damping( 0%)  Levelshifting(0.5)       DIIS
                  --------------- ------------------- ---------------
          dE  on:    start            ASAP                start   
          dE off:    2 iters         30 iters            30 iters 

 
      Screening Tolerance Information
      -------------------------------
          Density screening/tol_rho: 1.00D-10
          AO Gaussian exp screening on grid/accAOfunc:  16
          CD Gaussian exp screening on grid/accCDfunc:  20
          XC Gaussian exp screening on grid/accXCfunc:  20
          Schwarz screening/accCoul: 1.00D-08


 Loading old vectors from job with title :

84

 
   Symmetry analysis of molecular orbitals - initial alpha
   -------------------------------------------------------
 
  Numbering of irreducible representations: 
 
     1 a1          2 a2          3 b1          4 b2      
 
  Orbital symmetries:
 
     1 a1          2 a1          3 b1          4 a1          5 b2      
     6 a1          7 b1          8 a1          9 b2         10 b1      
    11 a1         12 b1         13 a1         14 a2         15 b2      
 
 
   Symmetry analysis of molecular orbitals - initial beta
   ------------------------------------------------------
 
  Numbering of irreducible representations: 
 
     1 a1          2 a2          3 b1          4 b2      
 
  Orbital symmetries:
 
     1 a1          2 a1          3 b1          4 a1          5 b2      
     6 a1          7 b1          8 a1          9 b2         10 b1      
    11 a1         12 b1         13 a1         14 a2         15 b2      
 
   Time after variat. SCF:      0.1
   Time prior to 1st pass:      0.1

 Grid_pts file          = ./84.gridpts.00
 Record size in doubles =  12289        No. of grid_pts per rec  =   3070
 Max. records in memory =      8        Max. recs in file   =   6245324


           Memory utilization after 1st SCF pass: 
           Heap Space remaining (MW):       13.00            13004106
          Stack Space remaining (MW):       13.11            13106151

   convergence    iter        energy       DeltaE   RMS-Dens  Diis-err    time
 ---------------- ----- ----------------- --------- --------- ---------  ------
 d= 0,ls=0.0,diis     1    -76.3863758025 -8.56D+01  4.20D-09  5.83D-13     2.1
                                                     4.20D-09  5.83D-13
 d= 0,ls=0.0,diis     2    -76.3863758025 -1.78D-12  2.26D-09  9.04D-13     2.6
                                                     2.26D-09  9.04D-13


         Total DFT energy =      -76.386375802514
      One electron energy =     -123.069854954384
           Coulomb energy =       46.743522370366
    Exchange-Corr. energy =       -9.252614965971
 Nuclear repulsion energy =        9.192571747476

 Numeric. integr. density =       10.000000016609

     Total iterative time =      2.4s


 
                  Occupations of the irreducible representations
                  ----------------------------------------------
 
                     irrep           alpha         beta
                     --------     --------     --------
                     a1                3.0          3.0
                     a2                0.0          0.0
                     b1                1.0          1.0
                     b2                1.0          1.0
 
 
                    DFT Final Alpha Molecular Orbital Analysis
                    ------------------------------------------
 
 Vector    1  Occ=1.000000D+00  E=-1.920846D+01  Symmetry=a1
              MO Center= -2.9D-17, -1.6D-19, -1.2D-01, r^2= 1.5D-02
   Bfn.  Coefficient  Atom+Function         Bfn.  Coefficient  Atom+Function  
  ----- ------------  ---------------      ----- ------------  ---------------
     1      0.563412  1 O  s                  3      0.360419  1 O  s          
     4      0.170514  1 O  s          
 
 Vector    2  Occ=1.000000D+00  E=-1.043329D+00  Symmetry=a1
              MO Center=  0.0D+00,  3.5D-31,  7.9D-02, r^2= 5.0D-01
   Bfn.  Coefficient  Atom+Function         Bfn.  Coefficient  Atom+Function  
  ----- ------------  ---------------      ----- ------------  ---------------
     6      0.464202  1 O  s                  5      0.285799  1 O  s          
     7      0.180591  1 O  s          
 
 Vector    3  Occ=1.000000D+00  E=-5.494380D-01  Symmetry=b1
              MO Center=  2.8D-15, -1.0D-17,  9.4D-02, r^2= 7.6D-01
   Bfn.  Coefficient  Atom+Function         Bfn.  Coefficient  Atom+Function  
  ----- ------------  ---------------      ----- ------------  ---------------
     8      0.287664  1 O  px                11      0.256528  1 O  px         
    14      0.189072  1 O  px                59      0.167314  2 H  s          
    89     -0.167314  3 H  s          
 
 Vector    4  Occ=1.000000D+00  E=-4.085798D-01  Symmetry=a1
              MO Center=  1.7D-16,  2.0D-15, -1.8D-01, r^2= 7.2D-01
   Bfn.  Coefficient  Atom+Function         Bfn.  Coefficient  Atom+Function  
  ----- ------------  ---------------      ----- ------------  ---------------
    10      0.309946  1 O  pz                13      0.282351  1 O  pz         
     7     -0.261423  1 O  s                  6     -0.238832  1 O  s          
    16      0.213677  1 O  pz         
 
 Vector    5  Occ=1.000000D+00  E=-3.319449D-01  Symmetry=b2
              MO Center= -7.3D-16, -2.4D-15, -7.6D-02, r^2= 6.9D-01
   Bfn.  Coefficient  Atom+Function         Bfn.  Coefficient  Atom+Function  
  ----- ------------  ---------------      ----- ------------  ---------------
     9      0.351858  1 O  py                12      0.330955  1 O  py         
    15      0.294047  1 O  py                18      0.199670  1 O  py         
 
 Vector    6  Occ=0.000000D+00  E= 1.869060D-02  Symmetry=a1
              MO Center= -2.2D-15,  4.3D-16,  6.6D-01, r^2= 4.1D+00
   Bfn.  Coefficient  Atom+Function         Bfn.  Coefficient  Atom+Function  
  ----- ------------  ---------------      ----- ------------  ---------------
     7      0.934551  1 O  s                 61     -0.802507  2 H  s          
    91     -0.802507  3 H  s                 16      0.171650  1 O  pz         
     5      0.151021  1 O  s          
 
 Vector    7  Occ=0.000000D+00  E= 8.104942D-02  Symmetry=b1
              MO Center= -2.7D-15, -1.6D-16,  7.8D-01, r^2= 5.4D+00
   Bfn.  Coefficient  Atom+Function         Bfn.  Coefficient  Atom+Function  
  ----- ------------  ---------------      ----- ------------  ---------------
    61     -2.020063  2 H  s                 91      2.020063  3 H  s          
    17      0.701599  1 O  px                60      0.221605  2 H  s          
    90     -0.221605  3 H  s                 14     -0.194889  1 O  px         
 
 Vector    8  Occ=0.000000D+00  E= 2.468424D-01  Symmetry=a1
              MO Center= -2.2D-13, -1.7D-16, -6.2D-01, r^2= 3.6D+00
   Bfn.  Coefficient  Atom+Function         Bfn.  Coefficient  Atom+Function  
  ----- ------------  ---------------      ----- ------------  ---------------
     7      4.525855  1 O  s                 60     -2.921246  2 H  s          
    90     -2.921246  3 H  s                 19      2.233710  1 O  pz         
    68      0.667849  2 H  px                98     -0.667849  3 H  px         
     6      0.652411  1 O  s                 70      0.522207  2 H  pz         
   100      0.522207  3 H  pz                16      0.373998  1 O  pz         
 
 Vector    9  Occ=0.000000D+00  E= 2.715718D-01  Symmetry=b2
              MO Center=  1.2D-18,  2.2D-16, -1.2D-01, r^2= 3.4D+00
   Bfn.  Coefficient  Atom+Function         Bfn.  Coefficient  Atom+Function  
  ----- ------------  ---------------      ----- ------------  ---------------
    18      1.410949  1 O  py                15     -0.898034  1 O  py         
     9     -0.216553  1 O  py         
 
 Vector   10  Occ=0.000000D+00  E= 2.718143D-01  Symmetry=b1
              MO Center=  2.7D-13, -2.0D-17, -3.1D-01, r^2= 3.2D+00
   Bfn.  Coefficient  Atom+Function         Bfn.  Coefficient  Atom+Function  
  ----- ------------  ---------------      ----- ------------  ---------------
    60      2.794652  2 H  s                 90     -2.794652  3 H  s          
    17     -1.826724  1 O  px                14     -0.998956  1 O  px         
    68     -0.456356  2 H  px                98     -0.456356  3 H  px         
    33      0.338630  1 O  d  1              61     -0.336247  2 H  s          
    91      0.336247  3 H  s                 59      0.305299  2 H  s          
 
 Vector   11  Occ=0.000000D+00  E= 3.120217D-01  Symmetry=a1
              MO Center= -1.3D-13, -1.0D-16,  4.0D-01, r^2= 3.4D+00
   Bfn.  Coefficient  Atom+Function         Bfn.  Coefficient  Atom+Function  
  ----- ------------  ---------------      ----- ------------  ---------------
    60      2.367619  2 H  s                 90      2.367619  3 H  s          
     7     -1.986860  1 O  s                 16     -0.996711  1 O  pz         
    61     -0.916994  2 H  s                 91     -0.916994  3 H  s          
     6     -0.866439  1 O  s                 59      0.270458  2 H  s          
    89      0.270458  3 H  s                 13     -0.228883  1 O  pz         
 
 Vector   12  Occ=0.000000D+00  E= 3.968237D-01  Symmetry=b1
              MO Center=  1.4D-14,  1.1D-29,  2.8D-01, r^2= 4.7D+00
   Bfn.  Coefficient  Atom+Function         Bfn.  Coefficient  Atom+Function  
  ----- ------------  ---------------      ----- ------------  ---------------
    17      2.654804  1 O  px                61     -2.475412  2 H  s          
    91      2.475412  3 H  s                 14     -0.675885  1 O  px         
    60     -0.392945  2 H  s                 90      0.392945  3 H  s          
    68      0.364856  2 H  px                98      0.364856  3 H  px         
    70      0.311981  2 H  pz               100     -0.311981  3 H  pz         
 
 Vector   13  Occ=0.000000D+00  E= 4.586538D-01  Symmetry=a1
              MO Center= -2.6D-15, -2.5D-17,  3.8D-01, r^2= 2.6D+00
   Bfn.  Coefficient  Atom+Function         Bfn.  Coefficient  Atom+Function  
  ----- ------------  ---------------      ----- ------------  ---------------
    60      1.188047  2 H  s                 90      1.188047  3 H  s          
     7     -1.063367  1 O  s                 16     -1.037517  1 O  pz         
    19     -0.973928  1 O  pz                70      0.816293  2 H  pz         
   100      0.816293  3 H  pz                68     -0.767041  2 H  px         
    98      0.767041  3 H  px                32     -0.501738  1 O  d  0       
 
 Vector   14  Occ=0.000000D+00  E= 5.173174D-01  Symmetry=a2
              MO Center=  8.0D-16,  2.5D-16,  4.7D-01, r^2= 2.2D+00
   Bfn.  Coefficient  Atom+Function         Bfn.  Coefficient  Atom+Function  
  ----- ------------  ---------------      ----- ------------  ---------------
    69      1.058578  2 H  py                99     -1.058578  3 H  py         
    30     -0.210616  1 O  d -2       
 
 Vector   15  Occ=0.000000D+00  E= 5.760467D-01  Symmetry=b2
              MO Center= -2.5D-16,  3.8D-16,  2.8D-01, r^2= 2.5D+00
   Bfn.  Coefficient  Atom+Function         Bfn.  Coefficient  Atom+Function  
  ----- ------------  ---------------      ----- ------------  ---------------
    69      1.257786  2 H  py                99      1.257786  3 H  py         
    18     -0.900265  1 O  py                15     -0.804513  1 O  py         
    31     -0.185678  1 O  d -1       
 
 
                     DFT Final Beta Molecular Orbital Analysis
                     -----------------------------------------
 
 Vector    1  Occ=1.000000D+00  E=-1.920846D+01  Symmetry=a1
              MO Center= -6.8D-18, -1.6D-19, -1.2D-01, r^2= 1.5D-02
   Bfn.  Coefficient  Atom+Function         Bfn.  Coefficient  Atom+Function  
  ----- ------------  ---------------      ----- ------------  ---------------
     1      0.563412  1 O  s                  3      0.360419  1 O  s          
     4      0.170514  1 O  s          
 
 Vector    2  Occ=1.000000D+00  E=-1.043329D+00  Symmetry=a1
              MO Center= -6.9D-18,  4.1D-31,  7.9D-02, r^2= 5.0D-01
   Bfn.  Coefficient  Atom+Function         Bfn.  Coefficient  Atom+Function  
  ----- ------------  ---------------      ----- ------------  ---------------
     6      0.464202  1 O  s                  5      0.285799  1 O  s          
     7      0.180591  1 O  s          
 
 Vector    3  Occ=1.000000D+00  E=-5.494380D-01  Symmetry=b1
              MO Center= -2.8D-17,  7.8D-31,  9.4D-02, r^2= 7.6D-01
   Bfn.  Coefficient  Atom+Function         Bfn.  Coefficient  Atom+Function  
  ----- ------------  ---------------      ----- ------------  ---------------
     8      0.287664  1 O  px                11      0.256528  1 O  px         
    14      0.189072  1 O  px                59      0.167314  2 H  s          
    89     -0.167314  3 H  s          
 
 Vector    4  Occ=1.000000D+00  E=-4.085798D-01  Symmetry=a1
              MO Center=  3.7D-16, -9.3D-15, -1.8D-01, r^2= 7.2D-01
   Bfn.  Coefficient  Atom+Function         Bfn.  Coefficient  Atom+Function  
  ----- ------------  ---------------      ----- ------------  ---------------
    10      0.309946  1 O  pz                13      0.282351  1 O  pz         
     7     -0.261423  1 O  s                  6     -0.238832  1 O  s          
    16      0.213677  1 O  pz         
 
 Vector    5  Occ=1.000000D+00  E=-3.319449D-01  Symmetry=b2
              MO Center= -8.4D-16,  1.2D-14, -7.6D-02, r^2= 6.9D-01
   Bfn.  Coefficient  Atom+Function         Bfn.  Coefficient  Atom+Function  
  ----- ------------  ---------------      ----- ------------  ---------------
     9      0.351858  1 O  py                12      0.330955  1 O  py         
    15      0.294047  1 O  py                18      0.199670  1 O  py         
 
 Vector    6  Occ=0.000000D+00  E= 1.869060D-02  Symmetry=a1
              MO Center=  2.3D-14,  7.1D-16,  6.6D-01, r^2= 4.1D+00
   Bfn.  Coefficient  Atom+Function         Bfn.  Coefficient  Atom+Function  
  ----- ------------  ---------------      ----- ------------  ---------------
     7      0.934551  1 O  s                 61     -0.802507  2 H  s          
    91     -0.802507  3 H  s                 16      0.171650  1 O  pz         
     5      0.151021  1 O  s          
 
 Vector    7  Occ=0.000000D+00  E= 8.104942D-02  Symmetry=b1
              MO Center= -2.8D-14,  5.3D-30,  7.8D-01, r^2= 5.4D+00
   Bfn.  Coefficient  Atom+Function         Bfn.  Coefficient  Atom+Function  
  ----- ------------  ---------------      ----- ------------  ---------------
    61     -2.020063  2 H  s                 91      2.020063  3 H  s          
    17      0.701599  1 O  px                60      0.221605  2 H  s          
    90     -0.221605  3 H  s                 14     -0.194889  1 O  px         
 
 Vector    8  Occ=0.000000D+00  E= 2.468424D-01  Symmetry=a1
              MO Center= -1.5D-13,  2.7D-16, -6.2D-01, r^2= 3.6D+00
   Bfn.  Coefficient  Atom+Function         Bfn.  Coefficient  Atom+Function  
  ----- ------------  ---------------      ----- ------------  ---------------
     7      4.525855  1 O  s                 60     -2.921246  2 H  s          
    90     -2.921246  3 H  s                 19      2.233710  1 O  pz         
    68      0.667849  2 H  px                98     -0.667849  3 H  px         
     6      0.652411  1 O  s                 70      0.522207  2 H  pz         
   100      0.522207  3 H  pz                16      0.373998  1 O  pz         
 
 Vector    9  Occ=0.000000D+00  E= 2.715718D-01  Symmetry=b2
              MO Center=  2.4D-15, -1.5D-14, -1.2D-01, r^2= 3.4D+00
   Bfn.  Coefficient  Atom+Function         Bfn.  Coefficient  Atom+Function  
  ----- ------------  ---------------      ----- ------------  ---------------
    18      1.410949  1 O  py                15     -0.898034  1 O  py         
     9     -0.216553  1 O  py         
 
 Vector   10  Occ=0.000000D+00  E= 2.718143D-01  Symmetry=b1
              MO Center=  1.5D-13,  2.4D-26, -3.1D-01, r^2= 3.2D+00
   Bfn.  Coefficient  Atom+Function         Bfn.  Coefficient  Atom+Function  
  ----- ------------  ---------------      ----- ------------  ---------------
    60     -2.794652  2 H  s                 90      2.794652  3 H  s          
    17      1.826724  1 O  px                14      0.998956  1 O  px         
    68      0.456356  2 H  px                98      0.456356  3 H  px         
    33     -0.338630  1 O  d  1              61      0.336247  2 H  s          
    91     -0.336247  3 H  s                 59     -0.305299  2 H  s          
 
 Vector   11  Occ=0.000000D+00  E= 3.120217D-01  Symmetry=a1
              MO Center=  1.1D-16,  1.5D-14,  4.0D-01, r^2= 3.4D+00
   Bfn.  Coefficient  Atom+Function         Bfn.  Coefficient  Atom+Function  
  ----- ------------  ---------------      ----- ------------  ---------------
    60      2.367619  2 H  s                 90      2.367619  3 H  s          
     7     -1.986860  1 O  s                 16     -0.996711  1 O  pz         
    61     -0.916994  2 H  s                 91     -0.916994  3 H  s          
     6     -0.866439  1 O  s                 59      0.270458  2 H  s          
    89      0.270458  3 H  s                 13     -0.228883  1 O  pz         
 
 Vector   12  Occ=0.000000D+00  E= 3.968237D-01  Symmetry=b1
              MO Center= -1.5D-14, -4.8D-16,  2.8D-01, r^2= 4.7D+00
   Bfn.  Coefficient  Atom+Function         Bfn.  Coefficient  Atom+Function  
  ----- ------------  ---------------      ----- ------------  ---------------
    17      2.654804  1 O  px                61     -2.475412  2 H  s          
    91      2.475412  3 H  s                 14     -0.675885  1 O  px         
    60     -0.392945  2 H  s                 90      0.392945  3 H  s          
    68      0.364856  2 H  px                98      0.364856  3 H  px         
    70      0.311981  2 H  pz               100     -0.311981  3 H  pz         
 
 Vector   13  Occ=0.000000D+00  E= 4.586538D-01  Symmetry=a1
              MO Center=  2.6D-15,  6.8D-16,  3.8D-01, r^2= 2.6D+00
   Bfn.  Coefficient  Atom+Function         Bfn.  Coefficient  Atom+Function  
  ----- ------------  ---------------      ----- ------------  ---------------
    60      1.188047  2 H  s                 90      1.188047  3 H  s          
     7     -1.063367  1 O  s                 16     -1.037517  1 O  pz         
    19     -0.973928  1 O  pz                70      0.816293  2 H  pz         
   100      0.816293  3 H  pz                68     -0.767041  2 H  px         
    98      0.767041  3 H  px                32     -0.501738  1 O  d  0       
 
 Vector   14  Occ=0.000000D+00  E= 5.173174D-01  Symmetry=a2
              MO Center= -1.0D-16,  5.2D-16,  4.7D-01, r^2= 2.2D+00
   Bfn.  Coefficient  Atom+Function         Bfn.  Coefficient  Atom+Function  
  ----- ------------  ---------------      ----- ------------  ---------------
    69      1.058578  2 H  py                99     -1.058578  3 H  py         
    30     -0.210616  1 O  d -2       
 
 Vector   15  Occ=0.000000D+00  E= 5.760467D-01  Symmetry=b2
              MO Center= -1.0D-16, -7.7D-16,  2.8D-01, r^2= 2.5D+00
   Bfn.  Coefficient  Atom+Function         Bfn.  Coefficient  Atom+Function  
  ----- ------------  ---------------      ----- ------------  ---------------
    69      1.257786  2 H  py                99      1.257786  3 H  py         
    18     -0.900265  1 O  py                15     -0.804513  1 O  py         
    31     -0.185678  1 O  d -1       
 

   alpha - beta orbital overlaps 
   ----------------------------- 


   alpha      1      2      3      4      5      6      7      8      9     10
    beta      1      2      3      4      5      6      7      8      9     10
 overlap   1.000  1.000  1.000  1.000  1.000  1.000  1.000  1.000  1.000  1.000


   alpha     11     12     13     14     15     16     17     18     19     20
    beta     11     12     13     14     15     16     17     18     19     20
 overlap   1.000  1.000  1.000  1.000  1.000  1.000  1.000  1.000  1.000  1.000


   alpha     21     22     23     24     25     26     27     28     29     30
    beta     21     22     23     24     25     26     27     28     29     30
 overlap   1.000  1.000  1.000  1.000  1.000  1.000  1.000  1.000  1.000  1.000


   alpha     31     32     33     34     35     36     37     38     39     40
    beta     31     32     33     34     35     36     37     38     39     40
 overlap   1.000  1.000  1.000  1.000  1.000  1.000  1.000  1.000  1.000  1.000


   alpha     41     42     43     44     45     46     47     48     49     50
    beta     41     42     43     44     45     46     47     48     49     50
 overlap   1.000  1.000  1.000  1.000  1.000  1.000  1.000  1.000  1.000  1.000


   alpha     51     52     53     54     55     56     57     58     59     60
    beta     51     52     53     54     55     56     57     58     59     60
 overlap   1.000  1.000  1.000  1.000  1.000  1.000  1.000  1.000  1.000  1.000


   alpha     61     62     63     64     65     66     67     68     69     70
    beta     61     62     63     64     65     66     67     68     69     70
 overlap   1.000  1.000  1.000  1.000  1.000  1.000  1.000  1.000  1.000  1.000


   alpha     71     72     73     74     75     76     77     78     79     80
    beta     71     72     73     74     75     76     77     78     79     80
 overlap   1.000  1.000  1.000  1.000  1.000  1.000  1.000  1.000  1.000  1.000


   alpha     81     82     83     84     85     86     87     88     89     90
    beta     81     82     83     84     85     86     87     88     89     90
 overlap   1.000  1.000  1.000  1.000  1.000  1.000  1.000  1.000  1.000  1.000


   alpha     91     92     93     94     95     96     97     98     99    100
    beta     91     92     93     94     95     96     97     98     99    100
 overlap   1.000  1.000  1.000  1.000  1.000  1.000  1.000  1.000  1.000  1.000


   alpha    101    102    103    104    105    106    107    108    109    110
    beta    101    102    103    104    105    106    107    108    109    110
 overlap   1.000  1.000  1.000  1.000  1.000  1.000  1.000  1.000  1.000  1.000


   alpha    111    112    113    114    115    116    117
    beta    111    112    113    114    115    116    117
 overlap   1.000  1.000  1.000  1.000  1.000  1.000  1.000

     --------------------------
     Expectation value of S2:  
     --------------------------
      <S2> =      0.0000 (Exact =     0.0000)
 

 center of mass
 --------------
 x =   0.00000000 y =   0.00000000 z =  -0.09756027

 moments of inertia (a.u.)
 ------------------
           2.195891215956           0.000000000000           0.000000000000
           0.000000000000           6.321796812417           0.000000000000
           0.000000000000           0.000000000000           4.125905596461
 
     Multipole analysis of the density
     ---------------------------------
 
     L   x y z        total         alpha         beta         nuclear
     -   - - -        -----         -----         ----         -------
     0   0 0 0      0.000000     -5.000000     -5.000000     10.000000
 
     1   1 0 0      0.000000      0.000000      0.000000      0.000000
     1   0 1 0      0.000000      0.000000      0.000000      0.000000
     1   0 0 1      0.752958      0.376479      0.376479      0.000000
 
     2   2 0 0     -3.255186     -3.674528     -3.674528      4.093871
     2   1 1 0      0.000000      0.000000      0.000000      0.000000
     2   1 0 1      0.000000      0.000000      0.000000      0.000000
     2   0 2 0     -5.659355     -2.829677     -2.829677      0.000000
     2   0 1 1      0.000000      0.000000      0.000000      0.000000
     2   0 0 2     -4.718116     -3.340424     -3.340424      1.962732
 

 Task  times  cpu:        2.6s     wall:        4.2s
 
 
                                NWChem Input Module
                                -------------------
 
 
 Summary of allocated global arrays
-----------------------------------
  No active global arrays



                         GA Statistics for process    0
                         ------------------------------

       create   destroy   get      put      acc     scatter   gather  read&inc
calls:  162      162     2853     1103      227        0        0        0     
number of processes/call 2.76e+00 2.30e+00 5.93e+00 0.00e+00 0.00e+00
bytes total:             2.38e+07 3.69e+06 1.17e+07 0.00e+00 0.00e+00 0.00e+00
bytes remote:            1.85e+07 1.58e+06 9.79e+06 0.00e+00 0.00e+00 0.00e+00
Max memory consumed for GA by this process: 1637496 bytes
 
MA_summarize_allocated_blocks: starting scan ...
MA_summarize_allocated_blocks: scan completed: 0 heap blocks, 0 stack blocks
MA usage statistics:

	allocation statistics:
					      heap	     stack
					      ----	     -----
	current number of blocks	         0	         0
	maximum number of blocks	        23	        53
	current total bytes		         0	         0
	maximum total bytes		    824760	  40107208
	maximum total K-bytes		       825	     40108
	maximum total M-bytes		         1	        41
 
 
                                     CITATION
                                     --------
                Please cite the following reference when publishing
                           results obtained with NWChem:
 
                 M. Valiev, E.J. Bylaska, N. Govind, K. Kowalski,
              T.P. Straatsma, H.J.J. van Dam, D. Wang, J. Nieplocha,
                        E. Apra, T.L. Windus, W.A. de Jong
                 "NWChem: a comprehensive and scalable open-source
                  solution for large scale molecular simulations"
                      Comput. Phys. Commun. 181, 1477 (2010)
                           doi:10.1016/j.cpc.2010.04.018
 
                              AUTHORS & CONTRIBUTORS
                              ----------------------
      E. J. Bylaska, W. A. de Jong, N. Govind, K. Kowalski, T. P. Straatsma,
     M. Valiev, H. J. J. van Dam, D. Wang, E. Apra, T. L. Windus, J. Hammond,
    J. Autschbach, F. Aquino, J. Mullin, P. Nichols, S. Hirata, M. T. Hackler,
   Y. Zhao, P.-D. Fan, R. J. Harrison, M. Dupuis, D. M. A. Smith, K. Glaesemann,
    J. Nieplocha, V. Tipparaju, M. Krishnan, A. Vazquez-Mayagoitia, L. Jensen,
      M. Swart, Q. Wu, T. Van Voorhis, A. A. Auer, M. Nooijen, L. D. Crosby,
        E. Brown, G. Cisneros, G. I. Fann, H. Fruchtl, J. Garza, K. Hirao,
        R. Kendall, J. A. Nichols, K. Tsemekhman, K. Wolinski, J. Anchell,
       D. Bernholdt, P. Borowski, T. Clark, D. Clerc, H. Dachsel, M. Deegan,
        K. Dyall, D. Elwood, E. Glendening, M. Gutowski, A. Hess, J. Jaffe,
        B. Johnson, J. Ju, R. Kobayashi, R. Kutteh, Z. Lin, R. Littlefield,
    X. Long, B. Meng, T. Nakajima, S. Niu, L. Pollack, M. Rosing, G. Sandrone,
       M. Stave, H. Taylor, G. Thomas, J. H. van Lenthe, A. Wong, Z. Zhang.

 Total times  cpu:        2.6s     wall:        5.7s
