 argument  1 = input.nw



============================== echo of input deck ==============================
start qmd_dft_h2o_svr
echo
print low
geometry noautosym noautoz
  O   0.00000000    -0.01681748     0.11334792
  H   0.00000000     0.81325914    -0.34310308
  H   0.00000000    -0.67863597    -0.56441201
end
basis
  * library 6-31G*
end
dft
  xc pbe0
end
qmd
  nstep_nucl  5
  dt_nucl     10.0
  targ_temp   200.0
  com_step    10
  thermostat  svr 100.0
  print_xyz   5
end
task dft qmd
================================================================================


                                         
                                         


              Northwest Computational Chemistry Package (NWChem) 6.6
              ------------------------------------------------------


                    Environmental Molecular Sciences Laboratory
                       Pacific Northwest National Laboratory
                                Richland, WA 99352

                              Copyright (c) 1994-2015
                       Pacific Northwest National Laboratory
                            Battelle Memorial Institute

             NWChem is an open-source computational chemistry package
                        distributed under the terms of the
                      Educational Community License (ECL) 2.0
             A copy of the license is included with this distribution
                              in the LICENSE.TXT file

                                  ACKNOWLEDGMENT
                                  --------------

            This software and its documentation were developed at the
            EMSL at Pacific Northwest National Laboratory, a multiprogram
            national laboratory, operated for the U.S. Department of Energy
            by Battelle under Contract Number DE-AC05-76RL01830. Support
            for this work was provided by the Department of Energy Office
            of Biological and Environmental Research, Office of Basic
            Energy Sciences, and the Office of Advanced Scientific Computing.


           Job information
           ---------------

    hostname        = lenovo700
    program         = nwchem
    date            = Wed Sep 14 15:04:49 2016

    compiled        = Mon_Feb_15_08:24:17_2016
    source          = /build/nwchem-MF0R1k/nwchem-6.6+r27746
    nwchem branch   = 6.6
    nwchem revision = 27746
    ga revision     = 10594
    input           = input.nw
    prefix          = qmd_dft_h2o_svr.
    data base       = ./qmd_dft_h2o_svr.db
    status          = startup
    nproc           =        1
    time left       =     -1s



           Memory information
           ------------------

    heap     =   13107198 doubles =    100.0 Mbytes
    stack    =   13107195 doubles =    100.0 Mbytes
    global   =   26214400 doubles =    200.0 Mbytes (distinct from heap & stack)
    total    =   52428793 doubles =    400.0 Mbytes
    verify   = yes
    hardfail = no 


           Directory information
           ---------------------

  0 permanent = .
  0 scratch   = .




                                NWChem Input Module
                                -------------------



 Scaling coordinates for geometry "geometry" by  1.889725989
 (inverse scale =  0.529177249)



                             Geometry "geometry" -> ""
                             -------------------------

 Output coordinates in angstroms (scale by  1.889725989 to convert to a.u.)

  No.       Tag          Charge          X              Y              Z
 ---- ---------------- ---------- -------------- -------------- --------------
    1 O                    8.0000     0.00000000    -0.01682581     0.11342109
    2 H                    1.0000     0.00000000     0.81325081    -0.34302991
    3 H                    1.0000     0.00000000    -0.67864430    -0.56433884

      Atomic Mass 
      ----------- 

      O                 15.994910
      H                  1.007825


 Effective nuclear repulsion energy (a.u.)       9.2887672039

            Nuclear Dipole moment (a.u.) 
            ----------------------------
        X                 Y               Z
 ---------------- ---------------- ----------------
     0.0000000000     0.0000000000     0.0000000000


            XYZ format geometry
            -------------------
     3
 geometry
 O                     0.00000000    -0.01682581     0.11342109
 H                     0.00000000     0.81325081    -0.34302991
 H                     0.00000000    -0.67864430    -0.56433884

 ==============================================================================
                                internuclear distances
 ------------------------------------------------------------------------------
       center one      |      center two      | atomic units |  angstroms
 ------------------------------------------------------------------------------
    2 H                |   1 O                |     1.79013  |     0.94730
    3 H                |   1 O                |     1.79012  |     0.94729
 ------------------------------------------------------------------------------
                         number of included internuclear distances:          2
 ==============================================================================



 ==============================================================================
                                 internuclear angles
 ------------------------------------------------------------------------------
        center 1       |       center 2       |       center 3       |  degrees
 ------------------------------------------------------------------------------
    2 H                |   1 O                |   3 H                |   105.51
 ------------------------------------------------------------------------------
                            number of included internuclear angles:          1
 ==============================================================================



  library name resolved from: .nwchemrc
  library file name is: </home/lauri/nwchem-6.6/src/basis/libraries/>
  


 Summary of "ao basis" -> "" (cartesian)
 ------------------------------------------------------------------------------
       Tag                 Description            Shells   Functions and Types
 ---------------- ------------------------------  ------  ---------------------
 *                           6-31G*                   on all atoms 


 calling qmd_driver


                                 NWChem QMD Module
                                 -----------------




                                QMD Run Parameters
                                ------------------


    No. of nuclear steps:                   5
       Nuclear time step:               10.00
        Target temp. (K):              200.00
              Thermostat:                 svr
                     Tau:              100.00
             Random seed:               -8677
      Nuclear integrator:     velocity-verlet
 No restart file found
 Beginning with random velocities
       Current temp. (K):              830.59

                                 NWChem DFT Module
                                 -----------------


                      Basis "ao basis" -> "ao basis" (cartesian)
                      -----
  O (Oxygen)
  ----------
            Exponent  Coefficients 
       -------------- ---------------------------------------------------------
  1 S  5.48467170E+03  0.001831
  1 S  8.25234950E+02  0.013950
  1 S  1.88046960E+02  0.068445
  1 S  5.29645000E+01  0.232714
  1 S  1.68975700E+01  0.470193
  1 S  5.79963530E+00  0.358521

  2 S  1.55396160E+01 -0.110778
  2 S  3.59993360E+00 -0.148026
  2 S  1.01376180E+00  1.130767

  3 P  1.55396160E+01  0.070874
  3 P  3.59993360E+00  0.339753
  3 P  1.01376180E+00  0.727159

  4 S  2.70005800E-01  1.000000

  5 P  2.70005800E-01  1.000000

  6 D  8.00000000E-01  1.000000

  H (Hydrogen)
  ------------
            Exponent  Coefficients 
       -------------- ---------------------------------------------------------
  1 S  1.87311370E+01  0.033495
  1 S  2.82539370E+00  0.234727
  1 S  6.40121700E-01  0.813757

  2 S  1.61277800E-01  1.000000



 Summary of "ao basis" -> "ao basis" (cartesian)
 ------------------------------------------------------------------------------
       Tag                 Description            Shells   Functions and Types
 ---------------- ------------------------------  ------  ---------------------
 O                           6-31G*                  6       15   3s2p1d
 H                           6-31G*                  2        2   2s



  Caching 1-el integrals 
   Time after variat. SCF:      0.1
   Time prior to 1st pass:      0.1


         Total DFT energy =      -76.325066149291
      One electron energy =     -123.272247284013
           Coulomb energy =       46.936105040748
    Exchange-Corr. energy =       -9.277691109951
 Nuclear repulsion energy =        9.288767203925

 Numeric. integr. density =       10.000001227433

     Total iterative time =      0.4s




                         DFT ENERGY GRADIENTS

    atom               coordinates                        gradient
                 x          y          z           x          y          z
   1 O       0.000000  -0.031796   0.214335    0.000000   0.003514  -0.023728
   2 H       0.000000   1.536821  -0.648233   -0.000000  -0.014425   0.009983
   3 H       0.000000  -1.282452  -1.066446    0.000000   0.010912   0.013746


                                 NWChem DFT Module
                                 -----------------



  Caching 1-el integrals 
   Time after variat. SCF:      0.6
   Time prior to 1st pass:      0.6


         Total DFT energy =      -76.324876801053
      One electron energy =     -123.293471622871
           Coulomb energy =       46.945910580941
    Exchange-Corr. energy =       -9.278925089848
 Nuclear repulsion energy =        9.301609330725

 Numeric. integr. density =       10.000001001327

     Total iterative time =      0.4s




                         DFT ENERGY GRADIENTS

    atom               coordinates                        gradient
                 x          y          z           x          y          z
   1 O      -0.000000  -0.030541   0.214843    0.000000   0.017462  -0.022827
   2 H       0.000000   1.520797  -0.645137   -0.000000  -0.023895   0.014570
   3 H      -0.000000  -1.286347  -1.077605    0.000000   0.006434   0.008257



            QMD Run Information
            -------------------
  Time elapsed (fs) :                     0.241888
  Kin. energy (a.u.):        1            0.003270
  Pot. energy (a.u.):        1          -76.324877
  Tot. energy (a.u.):        1          -76.321607
  Target temp. (K)  :        1              200.00
  Current temp. (K) :        1              688.40
  Dipole (a.u.)     :        1  -1.297680E-11   1.171852E-01  -8.161034E-01



                                 NWChem DFT Module
                                 -----------------



  Caching 1-el integrals 
   Time after variat. SCF:      1.1
   Time prior to 1st pass:      1.1


         Total DFT energy =      -76.324529295229
      One electron energy =     -123.304435531451
           Coulomb energy =       46.950661720540
    Exchange-Corr. energy =       -9.279572169719
 Nuclear repulsion energy =        9.308816685402

 Numeric. integr. density =       10.000000736576

     Total iterative time =      0.4s




                         DFT ENERGY GRADIENTS

    atom               coordinates                        gradient
                 x          y          z           x          y          z
   1 O      -0.000000  -0.029445   0.215385    0.000000   0.029824  -0.021815
   2 H       0.000000   1.507317  -0.643053   -0.000000  -0.032130   0.018615
   3 H      -0.000000  -1.290264  -1.088292    0.000000   0.002306   0.003199



            QMD Run Information
            -------------------
  Time elapsed (fs) :                     0.483777
  Kin. energy (a.u.):        2            0.003055
  Pot. energy (a.u.):        2          -76.324529
  Tot. energy (a.u.):        2          -76.321474
  Target temp. (K)  :        2              200.00
  Current temp. (K) :        2              643.13
  Dipole (a.u.)     :        2  -2.348946E-11   1.141435E-01  -8.184600E-01



                                 NWChem DFT Module
                                 -----------------



  Caching 1-el integrals 
   Time after variat. SCF:      1.6
   Time prior to 1st pass:      1.6


         Total DFT energy =      -76.324138035036
      One electron energy =     -123.304411905105
           Coulomb energy =       46.949866702110
    Exchange-Corr. energy =       -9.279563305594
 Nuclear repulsion energy =        9.309970473553

 Numeric. integr. density =       10.000000516618

     Total iterative time =      0.3s




                         DFT ENERGY GRADIENTS

    atom               coordinates                        gradient
                 x          y          z           x          y          z
   1 O      -0.000000  -0.028565   0.215939    0.000000   0.039782  -0.020577
   2 H       0.000000   1.496961  -0.642155   -0.000000  -0.038513   0.021767
   3 H      -0.000000  -1.293872  -1.097979   -0.000000  -0.001270  -0.001191



            QMD Run Information
            -------------------
  Time elapsed (fs) :                     0.725665
  Kin. energy (a.u.):        3            0.001843
  Pot. energy (a.u.):        3          -76.324138
  Tot. energy (a.u.):        3          -76.322295
  Target temp. (K)  :        3              200.00
  Current temp. (K) :        3              387.93
  Dipole (a.u.)     :        3  -3.039743E-11   1.117399E-01  -8.206893E-01



                                 NWChem DFT Module
                                 -----------------



  Caching 1-el integrals 
   Time after variat. SCF:      2.0
   Time prior to 1st pass:      2.0


         Total DFT energy =      -76.323750951040
      One electron energy =     -123.294194781986
           Coulomb energy =       46.944438448099
    Exchange-Corr. energy =       -9.279009691157
 Nuclear repulsion energy =        9.305015074005

 Numeric. integr. density =       10.000000330161

     Total iterative time =      0.3s




                         DFT ENERGY GRADIENTS

    atom               coordinates                        gradient
                 x          y          z           x          y          z
   1 O      -0.000000  -0.027833   0.216555    0.000000   0.047964  -0.018874
   2 H       0.000000   1.488834  -0.642446   -0.000000  -0.043379   0.024151
   3 H      -0.000000  -1.297360  -1.107463   -0.000000  -0.004584  -0.005278



            QMD Run Information
            -------------------
  Time elapsed (fs) :                     0.967554
  Kin. energy (a.u.):        4            0.001541
  Pot. energy (a.u.):        4          -76.323751
  Tot. energy (a.u.):        4          -76.322210
  Target temp. (K)  :        4              200.00
  Current temp. (K) :        4              324.45
  Dipole (a.u.)     :        4  -1.278336E-10   1.098299E-01  -8.229382E-01



                                 NWChem DFT Module
                                 -----------------



  Caching 1-el integrals 
   Time after variat. SCF:      2.5
   Time prior to 1st pass:      2.5


         Total DFT energy =      -76.323441706703
      One electron energy =     -123.272347778907
           Coulomb energy =       46.932769479968
    Exchange-Corr. energy =       -9.277713459878
 Nuclear repulsion energy =        9.293850052114

 Numeric. integr. density =       10.000000182255

     Total iterative time =      0.3s




                         DFT ENERGY GRADIENTS

    atom               coordinates                        gradient
                 x          y          z           x          y          z
   1 O      -0.000000  -0.027285   0.217217    0.000000   0.053886  -0.016628
   2 H       0.000000   1.483269  -0.644023   -0.000000  -0.046371   0.025550
   3 H      -0.000000  -1.300501  -1.116390   -0.000000  -0.007515  -0.008923



            QMD Run Information
            -------------------
  Time elapsed (fs) :                     1.209442
  Kin. energy (a.u.):        5            0.001163
  Pot. energy (a.u.):        5          -76.323442
  Tot. energy (a.u.):        5          -76.322278
  Target temp. (K)  :        5              200.00
  Current temp. (K) :        5              244.91
  Dipole (a.u.)     :        5  -2.610093E-10   1.084653E-01  -8.252185E-01




                                NWChem Input Module
                                -------------------




                                     CITATION
                                     --------
                Please cite the following reference when publishing
                           results obtained with NWChem:

                 M. Valiev, E.J. Bylaska, N. Govind, K. Kowalski,
              T.P. Straatsma, H.J.J. van Dam, D. Wang, J. Nieplocha,
                        E. Apra, T.L. Windus, W.A. de Jong
                 "NWChem: a comprehensive and scalable open-source
                  solution for large scale molecular simulations"
                      Comput. Phys. Commun. 181, 1477 (2010)
                           doi:10.1016/j.cpc.2010.04.018

                                      AUTHORS
                                      -------
          E. Apra, E. J. Bylaska, W. A. de Jong, N. Govind, K. Kowalski,
       T. P. Straatsma, M. Valiev, H. J. J. van Dam, D. Wang, T. L. Windus,
        J. Hammond, J. Autschbach, K. Bhaskaran-Nair, J. Brabec, K. Lopata,
       S. A. Fischer, S. Krishnamoorthy, W. Ma, M. Klemm, O. Villa, Y. Chen,
    V. Anisimov, F. Aquino, S. Hirata, M. T. Hackler, T. Risthaus, M. Malagoli,
       A. Marenich, A. Otero-de-la-Roza, J. Mullin, P. Nichols, R. Peverati,
     J. Pittner, Y. Zhao, P.-D. Fan, A. Fonari, M. Williamson, R. J. Harrison,
       J. R. Rehr, M. Dupuis, D. Silverstein, D. M. A. Smith, J. Nieplocha,
        V. Tipparaju, M. Krishnan, B. E. Van Kuiken, A. Vazquez-Mayagoitia,
        L. Jensen, M. Swart, Q. Wu, T. Van Voorhis, A. A. Auer, M. Nooijen,
      L. D. Crosby, E. Brown, G. Cisneros, G. I. Fann, H. Fruchtl, J. Garza,
        K. Hirao, R. A. Kendall, J. A. Nichols, K. Tsemekhman, K. Wolinski,
     J. Anchell, D. E. Bernholdt, P. Borowski, T. Clark, D. Clerc, H. Dachsel,
   M. J. O. Deegan, K. Dyall, D. Elwood, E. Glendening, M. Gutowski, A. C. Hess,
         J. Jaffe, B. G. Johnson, J. Ju, R. Kobayashi, R. Kutteh, Z. Lin,
   R. Littlefield, X. Long, B. Meng, T. Nakajima, S. Niu, L. Pollack, M. Rosing,
   K. Glaesemann, G. Sandrone, M. Stave, H. Taylor, G. Thomas, J. H. van Lenthe,
                               A. T. Wong, Z. Zhang.

 Total times  cpu:        2.8s     wall:        3.1s
