ATOMS
         O    3.909937    4.599926    4.489192        -0.000000    0.000000    1.002644
         H    3.909937    5.363165    3.892883        -0.000000    0.904459   -0.847668
         H    3.909937    3.836687    3.892883        -0.000000   -0.904459   -0.847668
