  python dir          : /home/users/winther/.local/lib/python2.7/site-packages/espresso
  espresso dir        : /home/users/vossj/suncat/s2/qe5/bin
  pseudo dir          : /home/users/winther/src/pseudo
  ase-espresso py git : d16fa15-git



     Program PWSCF v.5.1rc2 starts on 23Jul2018 at 15:43: 6 

     This program is part of the open-source Quantum ESPRESSO suite
     for quantum simulation of materials; please cite
         "P. Giannozzi et al., J. Phys.:Condens. Matter 21 395502 (2009);
          URL http://www.quantum-espresso.org", 
     in publications or presentations arising from this work. More details at
     http://www.quantum-espresso.org/quote

     Parallel version (MPI), running on    16 processors
     R & G space division:  proc/nbgrp/npool/nimage =      16
     Reading input from pw.inp
     Message from routine read_cards :
     DEPRECATED: no units specified in CELL_PARAMETERS card

     Current dimensions of program PWSCF are:
     Max number of different atomic species (ntypx) = 10
     Max number of k-points (npk) =  40000
     Max angular momentum in pseudopotentials (lmaxx) =  3
     Presently stress not available with electric field


     **************************************************************************
     Initializing libbeef V0.1.2 with the BEEF-vdW functional.
     Citation: Wellendorff et al., PRB 85, 235149 (2012).
     **************************************************************************


     IMPORTANT: XC functional enforced from input :
     Exchange-correlation      = BEEF-VDW ( 1  4 27 13 2)
     Any further DFT definition will be discarded
     Please, verify this is what you really want


     Subspace diagonalization in iterative solution of the eigenvalue problem:
     scalapack distributed-memory algorithm (size of sub-group:  2*  2 procs)

 
     Parallelization info
     --------------------
     sticks:   dense  smooth     PW     G-vecs:    dense   smooth      PW
     Min         196      78     22                37450     9468    1470
     Max         197      79     23                37461     9497    1479
     Sum        3151    1263    359               599299   151687   23591
 


     bravais-lattice index     =            0
     lattice parameter (alat)  =       1.8897  a.u.
     unit-cell volume          =    5038.7363 (a.u.)^3
     number of atoms/cell      =           13
     number of atomic types    =            3
     number of electrons       =       166.00
     number of Kohn-Sham states=           93
     kinetic-energy cutoff     =      36.7493  Ry
     charge density cutoff     =     367.4932  Ry
     convergence threshold     =      1.0E-05
     mixing beta               =       0.3000
     number of iterations used =           10  plain     mixing
     Exchange-correlation      = BEEF-VDW ( 1  4 27 13 2)
     nstep                     =           50


     celldm(1)=   1.889726  celldm(2)=   0.000000  celldm(3)=   0.000000
     celldm(4)=   0.000000  celldm(5)=   0.000000  celldm(6)=   0.000000

     crystal axes: (cart. coord. in units of alat)
               a(1) = (   6.075712   0.000000   0.000000 )  
               a(2) = (   2.566279   4.959653   0.000000 )  
               a(3) = (   0.000000   0.000000  24.778589 )  

     reciprocal axes: (cart. coord. in units 2 pi/alat)
               b(1) = (  0.164590 -0.085164  0.000000 )  
               b(2) = (  0.000000  0.201627  0.000000 )  
               b(3) = (  0.000000  0.000000  0.040357 )  


     PseudoPot. # 1 for Hg read from file:
     /home/users/winther/src/pseudo/Hg.UPF
     MD5 check sum: 8f42caffe07f7fd9c0a564347f8c5498
     Pseudo is Ultrasoft + core correction, Zval = 12.0
     Generated by new atomic code, or converted to UPF format
     Using radial grid of  985 points,  6 beta functions with: 
                l(1) =   0
                l(2) =   0
                l(3) =   1
                l(4) =   1
                l(5) =   2
                l(6) =   2
     Q(r) pseudized with  8 coefficients,  rinner =    2.000   2.000   2.000
                                                       2.000   2.000

     PseudoPot. # 2 for Re read from file:
     /home/users/winther/src/pseudo/Re.UPF
     MD5 check sum: 85f993410f3e006da9d71c142b4ad953
     Pseudo is Ultrasoft + core correction, Zval = 15.0
     Generated by new atomic code, or converted to UPF format
     Using radial grid of  981 points,  8 beta functions with: 
                l(1) =   0
                l(2) =   0
                l(3) =   1
                l(4) =   1
                l(5) =   2
                l(6) =   2
                l(7) =   3
                l(8) =   3
     Q(r) pseudized with  8 coefficients,  rinner =    1.150   1.150   1.150
                                                       1.150   1.150   1.150
                                                       1.150

     PseudoPot. # 3 for C  read from file:
     /home/users/winther/src/pseudo/C.UPF
     MD5 check sum: d1aef80898a10debaa0f26306b886e00
     Pseudo is Ultrasoft + core correction, Zval =  4.0
     Generated by new atomic code, or converted to UPF format
     Using radial grid of  721 points,  4 beta functions with: 
                l(1) =   0
                l(2) =   0
                l(3) =   1
                l(4) =   1
     Q(r) pseudized with  8 coefficients,  rinner =    1.100   1.100   1.100


     vdW kernel table read from file vdW_kernel_table
     MD5 check sum: 095c7af220d748ca6e76c0b4c6cfb241

     atomic species   valence    mass     pseudopotential
        Hg1           12.00   200.59200     Hg( 1.00)
        Re1           15.00   186.20700     Re( 1.00)
        C1             4.00    12.01100     C ( 1.00)

     No symmetry found



   Cartesian axes

     site n.     atom                  positions (alat units)
         1           Hg1 tau(   1) = (   0.8115616   1.1519540  10.0000000  )
         2           Re1 tau(   2) = (   3.8494178   1.1519540  10.0000000  )
         3           Hg1 tau(   3) = (   2.0947009   3.6317803  10.0000000  )
         4           Re1 tau(   4) = (   5.1325570   3.6317803  10.0000000  )
         5           Hg1 tau(   5) = (   6.8872739   4.2957165  12.3892943  )
         6           Re1 tau(   6) = (   2.5662785   1.8158902  12.3892943  )
         7           Hg1 tau(   7) = (   5.6041347   1.8158902  12.3892943  )
         8           Re1 tau(   8) = (   3.8494178   4.2957165  12.3892943  )
         9           Hg1 tau(   9) = (   3.0378561   0.0000000  14.7785887  )
        10           Re1 tau(  10) = (   0.0000000   0.0000000  14.7785887  )
        11           Re1 tau(  11) = (   1.2831393   2.4798263  14.7785887  )
        12           Hg1 tau(  12) = (   4.3209954   2.4798263  14.7785887  )
        13           C1  tau(  13) = (   0.6415696   1.2399132  16.4222115  )

     number of k points=    20  Fermi-Dirac smearing, width (Ry)=  0.0110
                       cart. coord. in units 2pi/alat
        k(    1) = (   0.0000000   0.0000000   0.0000000), wk =   0.0555556
        k(    2) = (   0.0000000   0.0336045   0.0000000), wk =   0.1111111
        k(    3) = (   0.0000000   0.0672090   0.0000000), wk =   0.1111111
        k(    4) = (   0.0000000  -0.1008135   0.0000000), wk =   0.0555556
        k(    5) = (   0.0274316  -0.0141940   0.0000000), wk =   0.1111111
        k(    6) = (   0.0274316   0.0194105   0.0000000), wk =   0.1111111
        k(    7) = (   0.0274316   0.0530150   0.0000000), wk =   0.1111111
        k(    8) = (   0.0274316  -0.1150075   0.0000000), wk =   0.1111111
        k(    9) = (   0.0274316  -0.0814030   0.0000000), wk =   0.1111111
        k(   10) = (   0.0274316  -0.0477985   0.0000000), wk =   0.1111111
        k(   11) = (   0.0548633  -0.0283880   0.0000000), wk =   0.1111111
        k(   12) = (   0.0548633   0.0052166   0.0000000), wk =   0.1111111
        k(   13) = (   0.0548633   0.0388211   0.0000000), wk =   0.1111111
        k(   14) = (   0.0548633  -0.1292015   0.0000000), wk =   0.1111111
        k(   15) = (   0.0548633  -0.0955970   0.0000000), wk =   0.1111111
        k(   16) = (   0.0548633  -0.0619925   0.0000000), wk =   0.1111111
        k(   17) = (  -0.0822949   0.0425819   0.0000000), wk =   0.0555556
        k(   18) = (  -0.0822949   0.0761864   0.0000000), wk =   0.1111111
        k(   19) = (  -0.0822949   0.1097909   0.0000000), wk =   0.1111111
        k(   20) = (  -0.0822949  -0.0582316   0.0000000), wk =   0.0555556

     Dense  grid:   599299 G-vectors     FFT dimensions: (  72,  72, 288)

     Smooth grid:   151687 G-vectors     FFT dimensions: (  45,  45, 192)

     Largest allocated arrays     est. size (Mb)     dimensions
        Kohn-Sham Wavefunctions         1.75 Mb     (    1232,   93)
        NL pseudopotentials             5.79 Mb     (    1232,  308)
        Each V/rho on FFT grid          1.42 Mb     (   93312)
        Each G-vector array             0.29 Mb     (   37455)
        G-vector shells                 0.14 Mb     (   18395)
     Largest temporary arrays     est. size (Mb)     dimensions
        Auxiliary wavefunctions         6.99 Mb     (    1232,  372)
        Each subspace H/S matrix        0.53 Mb     (     186,  186)
        Each <psi_i|beta_j> matrix      0.44 Mb     (     308,   93)
        Arrays for rho mixing          14.24 Mb     (   93312,   10)

     Initial potential from superposition of free atoms
     Check: negative starting charge=   -0.775718

     starting charge  162.99934, renormalised to  166.00000

     negative rho (up, down):  7.900E-01 0.000E+00


     ************************************************************************
     *
     * You are using vdW-DF for exchange-correlation in this calculation.
     * Please cite the following three references that made this development
     * possible:
     *
     *   M. Dion, H. Rydberg, E. Schroder, D. C. Langreth, and
     *   B. I. Lundqvist, Phys. Rev. Lett. 92, 246401 (2004).
     *
     *   T. Thonhauser, V. R. Cooper, S. Li, A. Puzder, P. Hyldgaard, and
     *   D. C. Langreth, Phys. Rev. B 76, 125112 (2007).
     *
     *   G. Roman-Perez and J. M. Soler, Phys. Rev. Lett. 103, 096102 (2009).
     *
     *
     * If you are using vdW-DF2, please also cite:
     *
     *   K. Lee, E. D. Murray, L. Kong, B. I. Lundqvist, and
     *   D. C. Langreth, Phys. Rev. B 82, 081101(R) (2010).
     *
     *
     * If you are calculating the stress with vdW-DF, please also cite:
     *
     *   R. Sabatini, E. Kucukbenli, B. Kolb, T. Thonhauser, and
     *   S. de Gironcoli, J. Phys.: Condens. Matter 24, 424209 (2012).
     *
     ************************************************************************

     Carrying out vdW-DF run using the following parameters:

     Nqs =      20    Nr_points =    1024   r_max =   100.000
     q_mesh =
               0.00001000     0.04494208     0.09755937     0.15916263
               0.23128650     0.31572767     0.41458969     0.53033537
               0.66584808     0.82450364     1.01025438     1.22772762
               1.48234092     1.78043706     2.12944203     2.53805004
               3.01644009     3.57652955     4.23227104     5.00000000

     Gradients computed in reciprocal space

     ************************************************************************


 
     Adding external electric field

     Computed dipole along edir(3) : 
        Dipole               -0.5609 Ry au,         -1.4256 Debye
        Dipole field         -0.0014 Ry au
 
        Potential amp.        0.1277 Ry
        Total length         45.6541 bohr
 
     Starting wfc are  136 randomized atomic wfcs

     total cpu time spent up to now is        8.2 secs

     per-process dynamical memory:    42.2 Mb

     Self-consistent Calculation

     iteration #  1     ecut=    36.75 Ry     beta=0.30
     Davidson diagonalization with overlap
     ethr =  1.00E-02,  avg # of iterations =  2.5

     negative rho (up, down):  7.701E-01 0.000E+00
 
     Adding external electric field

     Computed dipole along edir(3) : 
        Dipole                4.5099 Ry au,         11.4631 Debye
        Dipole field          0.0112 Ry au
 
        Potential amp.       -1.0270 Ry
        Total length         45.6541 bohr
 

     total cpu time spent up to now is       19.2 secs

     total energy              =   -1814.52600459 Ry
     Harris-Foulkes estimate   =   -1818.92611151 Ry
     estimated scf accuracy    <       9.12911292 Ry

     iteration #  2     ecut=    36.75 Ry     beta=0.30
     Davidson diagonalization with overlap
     ethr =  5.50E-03,  avg # of iterations =  6.2

     negative rho (up, down):  7.709E-01 0.000E+00
 
     Adding external electric field

     Computed dipole along edir(3) : 
        Dipole               -1.5973 Ry au,         -4.0600 Debye
        Dipole field         -0.0040 Ry au
 
        Potential amp.        0.3637 Ry
        Total length         45.6541 bohr
 

     total cpu time spent up to now is       41.2 secs

     total energy              =   -1808.35869145 Ry
     Harris-Foulkes estimate   =   -1832.33242414 Ry
     estimated scf accuracy    <     426.92959722 Ry

     iteration #  3     ecut=    36.75 Ry     beta=0.30
     Davidson diagonalization with overlap
     ethr =  5.50E-03,  avg # of iterations =  6.3

     negative rho (up, down):  7.732E-01 0.000E+00
 
     Adding external electric field

     Computed dipole along edir(3) : 
        Dipole               -0.6654 Ry au,         -1.6912 Debye
        Dipole field         -0.0017 Ry au
 
        Potential amp.        0.1515 Ry
        Total length         45.6541 bohr
 

     total cpu time spent up to now is       61.2 secs

     total energy              =   -1816.99647085 Ry
     Harris-Foulkes estimate   =   -1818.85464962 Ry
     estimated scf accuracy    <      10.33547375 Ry

     iteration #  4     ecut=    36.75 Ry     beta=0.30
     Davidson diagonalization with overlap
     ethr =  5.50E-03,  avg # of iterations =  3.6

     negative rho (up, down):  7.770E-01 0.000E+00
 
     Adding external electric field

     Computed dipole along edir(3) : 
        Dipole               -0.3231 Ry au,         -0.8211 Debye
        Dipole field         -0.0008 Ry au
 
        Potential amp.        0.0736 Ry
        Total length         45.6541 bohr
 

     total cpu time spent up to now is       73.8 secs

     total energy              =   -1817.58721422 Ry
     Harris-Foulkes estimate   =   -1818.52337102 Ry
     estimated scf accuracy    <       7.47862510 Ry

     iteration #  5     ecut=    36.75 Ry     beta=0.30
     Davidson diagonalization with overlap
     ethr =  4.51E-03,  avg # of iterations =  2.2

     negative rho (up, down):  7.809E-01 0.000E+00
 
     Adding external electric field

     Computed dipole along edir(3) : 
        Dipole               -0.4539 Ry au,         -1.1536 Debye
        Dipole field         -0.0011 Ry au
 
        Potential amp.        0.1034 Ry
        Total length         45.6541 bohr
 

     total cpu time spent up to now is       84.8 secs

     total energy              =   -1817.99107988 Ry
     Harris-Foulkes estimate   =   -1818.05987957 Ry
     estimated scf accuracy    <       0.47605614 Ry

     iteration #  6     ecut=    36.75 Ry     beta=0.30
     Davidson diagonalization with overlap
     ethr =  2.87E-04,  avg # of iterations =  6.5

     negative rho (up, down):  7.811E-01 0.000E+00
 
     Adding external electric field

     Computed dipole along edir(3) : 
        Dipole               -0.4063 Ry au,         -1.0327 Debye
        Dipole field         -0.0010 Ry au
 
        Potential amp.        0.0925 Ry
        Total length         45.6541 bohr
 

     total cpu time spent up to now is      101.6 secs

     total energy              =   -1818.04640326 Ry
     Harris-Foulkes estimate   =   -1818.07383995 Ry
     estimated scf accuracy    <       0.11522643 Ry

     iteration #  7     ecut=    36.75 Ry     beta=0.30
     Davidson diagonalization with overlap
     ethr =  6.94E-05,  avg # of iterations =  2.1

     negative rho (up, down):  7.809E-01 0.000E+00
 
     Adding external electric field

     Computed dipole along edir(3) : 
        Dipole               -0.3212 Ry au,         -0.8165 Debye
        Dipole field         -0.0008 Ry au
 
        Potential amp.        0.0731 Ry
        Total length         45.6541 bohr
 

     total cpu time spent up to now is      113.2 secs

     total energy              =   -1818.05241207 Ry
     Harris-Foulkes estimate   =   -1818.05677625 Ry
     estimated scf accuracy    <       0.04324562 Ry

     iteration #  8     ecut=    36.75 Ry     beta=0.30
     Davidson diagonalization with overlap
     ethr =  2.61E-05,  avg # of iterations =  1.4

     negative rho (up, down):  7.807E-01 0.000E+00
 
     Adding external electric field

     Computed dipole along edir(3) : 
        Dipole               -0.3077 Ry au,         -0.7820 Debye
        Dipole field         -0.0008 Ry au
 
        Potential amp.        0.0701 Ry
        Total length         45.6541 bohr
 

     total cpu time spent up to now is      123.6 secs

     total energy              =   -1818.05357063 Ry
     Harris-Foulkes estimate   =   -1818.05480664 Ry
     estimated scf accuracy    <       0.01100903 Ry

     iteration #  9     ecut=    36.75 Ry     beta=0.30
     Davidson diagonalization with overlap
     ethr =  6.63E-06,  avg # of iterations =  4.7

     negative rho (up, down):  7.804E-01 0.000E+00
 
     Adding external electric field

     Computed dipole along edir(3) : 
        Dipole               -0.3083 Ry au,         -0.7835 Debye
        Dipole field         -0.0008 Ry au
 
        Potential amp.        0.0702 Ry
        Total length         45.6541 bohr
 

     total cpu time spent up to now is      136.9 secs

     total energy              =   -1818.05387547 Ry
     Harris-Foulkes estimate   =   -1818.05581380 Ry
     estimated scf accuracy    <       0.02367248 Ry

     iteration # 10     ecut=    36.75 Ry     beta=0.30
     Davidson diagonalization with overlap
     ethr =  6.63E-06,  avg # of iterations =  2.1

     negative rho (up, down):  7.801E-01 0.000E+00
 
     Adding external electric field

     Computed dipole along edir(3) : 
        Dipole               -0.3133 Ry au,         -0.7964 Debye
        Dipole field         -0.0008 Ry au
 
        Potential amp.        0.0713 Ry
        Total length         45.6541 bohr
 

     total cpu time spent up to now is      148.0 secs

     total energy              =   -1818.05444712 Ry
     Harris-Foulkes estimate   =   -1818.05516269 Ry
     estimated scf accuracy    <       0.00621867 Ry

     iteration # 11     ecut=    36.75 Ry     beta=0.30
     Davidson diagonalization with overlap
     ethr =  3.75E-06,  avg # of iterations =  3.0

     negative rho (up, down):  7.801E-01 0.000E+00
 
     Adding external electric field

     Computed dipole along edir(3) : 
        Dipole               -0.3179 Ry au,         -0.8081 Debye
        Dipole field         -0.0008 Ry au
 
        Potential amp.        0.0724 Ry
        Total length         45.6541 bohr
 

     total cpu time spent up to now is      159.3 secs

     total energy              =   -1818.05481917 Ry
     Harris-Foulkes estimate   =   -1818.05502145 Ry
     estimated scf accuracy    <       0.00545998 Ry

     iteration # 12     ecut=    36.75 Ry     beta=0.30
     Davidson diagonalization with overlap
     ethr =  3.29E-06,  avg # of iterations =  1.0

     negative rho (up, down):  7.802E-01 0.000E+00
 
     Adding external electric field

     Computed dipole along edir(3) : 
        Dipole               -0.3154 Ry au,         -0.8018 Debye
        Dipole field         -0.0008 Ry au
 
        Potential amp.        0.0718 Ry
        Total length         45.6541 bohr
 

     total cpu time spent up to now is      169.5 secs

     total energy              =   -1818.05493909 Ry
     Harris-Foulkes estimate   =   -1818.05497674 Ry
     estimated scf accuracy    <       0.00025727 Ry

     iteration # 13     ecut=    36.75 Ry     beta=0.30
     Davidson diagonalization with overlap
     ethr =  1.55E-07,  avg # of iterations =  5.1

     negative rho (up, down):  7.803E-01 0.000E+00
 
     Adding external electric field

     Computed dipole along edir(3) : 
        Dipole               -0.3076 Ry au,         -0.7818 Debye
        Dipole field         -0.0008 Ry au
 
        Potential amp.        0.0700 Ry
        Total length         45.6541 bohr
 

     total cpu time spent up to now is      184.0 secs

     total energy              =   -1818.05495417 Ry
     Harris-Foulkes estimate   =   -1818.05499999 Ry
     estimated scf accuracy    <       0.00028983 Ry

     iteration # 14     ecut=    36.75 Ry     beta=0.30
     Davidson diagonalization with overlap
     ethr =  1.55E-07,  avg # of iterations =  2.0

     negative rho (up, down):  7.803E-01 0.000E+00
 
     Adding external electric field

     Computed dipole along edir(3) : 
        Dipole               -0.3050 Ry au,         -0.7752 Debye
        Dipole field         -0.0008 Ry au
 
        Potential amp.        0.0695 Ry
        Total length         45.6541 bohr
 

     total cpu time spent up to now is      195.0 secs

     total energy              =   -1818.05497149 Ry
     Harris-Foulkes estimate   =   -1818.05498211 Ry
     estimated scf accuracy    <       0.00006047 Ry

     iteration # 15     ecut=    36.75 Ry     beta=0.30
     Davidson diagonalization with overlap
     ethr =  3.64E-08,  avg # of iterations =  3.8

     negative rho (up, down):  7.803E-01 0.000E+00
 
     Adding external electric field

     Computed dipole along edir(3) : 
        Dipole               -0.3064 Ry au,         -0.7788 Debye
        Dipole field         -0.0008 Ry au
 
        Potential amp.        0.0698 Ry
        Total length         45.6541 bohr
 

     total cpu time spent up to now is      207.8 secs

     total energy              =   -1818.05497491 Ry
     Harris-Foulkes estimate   =   -1818.05497680 Ry
     estimated scf accuracy    <       0.00002464 Ry

     iteration # 16     ecut=    36.75 Ry     beta=0.30
     Davidson diagonalization with overlap
     ethr =  1.48E-08,  avg # of iterations =  2.6

     negative rho (up, down):  7.803E-01 0.000E+00

     negative rho (up, down):  7.803E-01 0.000E+00

     negative rho (up, down):  7.803E-01 0.000E+00

     negative rho (up, down):  7.803E-01 0.000E+00

     negative rho (up, down):  7.803E-01 0.000E+00

     negative rho (up, down):  7.803E-01 0.000E+00

     negative rho (up, down):  7.803E-01 0.000E+00

     negative rho (up, down):  7.803E-01 0.000E+00

     negative rho (up, down):  7.803E-01 0.000E+00

     negative rho (up, down):  7.803E-01 0.000E+00

     negative rho (up, down):  7.803E-01 0.000E+00

     negative rho (up, down):  7.803E-01 0.000E+00

     negative rho (up, down):  7.803E-01 0.000E+00

     negative rho (up, down):  7.803E-01 0.000E+00

     negative rho (up, down):  7.803E-01 0.000E+00

     negative rho (up, down):  7.803E-01 0.000E+00

     negative rho (up, down):  7.803E-01 0.000E+00

     negative rho (up, down):  7.803E-01 0.000E+00

     negative rho (up, down):  7.803E-01 0.000E+00

     negative rho (up, down):  7.803E-01 0.000E+00

     negative rho (up, down):  7.803E-01 0.000E+00

     negative rho (up, down):  7.803E-01 0.000E+00

     negative rho (up, down):  7.803E-01 0.000E+00

     negative rho (up, down):  7.803E-01 0.000E+00

     negative rho (up, down):  7.803E-01 0.000E+00

     negative rho (up, down):  7.803E-01 0.000E+00

     negative rho (up, down):  7.803E-01 0.000E+00

     negative rho (up, down):  7.803E-01 0.000E+00

     negative rho (up, down):  7.803E-01 0.000E+00

     negative rho (up, down):  7.803E-01 0.000E+00

     negative rho (up, down):  7.803E-01 0.000E+00

     negative rho (up, down):  7.803E-01 0.000E+00

     negative rho (up, down):  7.803E-01 0.000E+00

     negative rho (up, down):  7.803E-01 0.000E+00

     negative rho (up, down):  7.803E-01 0.000E+00
 
     Adding external electric field

     Computed dipole along edir(3) : 
        Dipole               -0.3224 Ry au,         -0.8196 Debye
        Dipole field         -0.0008 Ry au
 
        Potential amp.        0.0734 Ry
        Total length         45.6541 bohr
 

     total cpu time spent up to now is      231.6 secs

     End of self-consistent calculation

          k = 0.0000 0.0000 0.0000 ( 18911 PWs)   bands (ev):

   -79.4178 -79.3876 -79.2437 -79.2128 -79.1191 -79.0890 -41.3050 -41.2466
   -41.2087 -41.1844 -41.0747 -41.0449 -41.0200 -40.9779 -40.9240 -40.8391
   -40.8002 -40.7868 -40.7813 -40.7591 -40.6922 -40.6698 -40.6379 -40.5264
    -8.8213  -8.2770  -7.8332  -7.7760  -7.7519  -7.5835  -7.5222  -7.3660
    -7.2336  -7.0877  -7.0706  -6.9486  -6.9275  -6.6766  -6.5049  -6.3096
    -6.2170  -6.1983  -6.1433  -6.1037  -5.9437  -5.9184  -5.8337  -5.7395
    -5.7122  -5.5182  -5.4712  -5.3898  -5.3673  -5.2750  -5.2032  -5.0105
    -4.4016  -3.2361  -2.4948  -2.4011  -2.2398  -2.1701  -2.1248  -1.7511
    -1.6317  -1.6249  -1.3261  -1.0738  -0.9308  -0.5180  -0.3460  -0.1568
    -0.0332  -0.0188   0.0417   0.3663   0.8809   0.9192   1.1725   1.2835
     1.4025   1.4281   1.6466   1.7410   1.9157   1.9232   2.1539   2.3180
     2.4200   2.4742   2.5034   2.6111   2.7098

          k = 0.0000 0.0336 0.0000 ( 18915 PWs)   bands (ev):

   -79.4157 -79.3896 -79.2417 -79.2149 -79.1171 -79.0910 -41.2714 -41.2399
   -41.1884 -41.1771 -41.0711 -41.0238 -41.0113 -40.9743 -40.9277 -40.8356
   -40.8175 -40.7962 -40.7908 -40.7692 -40.6975 -40.6888 -40.6436 -40.5621
    -8.6696  -8.1228  -7.7429  -7.6828  -7.5617  -7.4264  -7.4171  -7.3027
    -7.2634  -7.0232  -6.9835  -6.9087  -6.8454  -6.6030  -6.4568  -6.3236
    -6.2284  -6.1325  -6.1236  -6.0880  -6.0172  -5.9308  -5.8462  -5.8356
    -5.7215  -5.5351  -5.5118  -5.4438  -5.4001  -5.3651  -5.3110  -5.0973
    -4.5906  -3.1984  -3.1505  -2.5083  -2.4600  -2.2288  -2.1132  -1.9469
    -1.7811  -1.7027  -1.1960  -0.9670  -0.7860  -0.5752  -0.3225  -0.2613
    -0.0549   0.0068   0.1224   0.3254   0.4907   0.6727   0.8191   0.9902
     1.1468   1.3019   1.4388   1.4672   1.7370   1.9096   2.1028   2.1927
     2.2530   2.4425   2.6321   2.6748   2.7724

          k = 0.0000 0.0672 0.0000 ( 18947 PWs)   bands (ev):

   -79.4103 -79.3951 -79.2362 -79.2203 -79.1116 -79.0965 -41.2291 -41.1991
   -41.1766 -41.0857 -41.0609 -41.0340 -40.9645 -40.9381 -40.9189 -40.9154
   -40.8333 -40.8256 -40.7981 -40.7847 -40.7449 -40.6796 -40.6599 -40.6535
    -8.3967  -7.6727  -7.4948  -7.4286  -7.3418  -7.1606  -7.1439  -7.0370
    -6.9335  -6.9217  -6.8106  -6.6966  -6.5961  -6.5240  -6.4299  -6.3679
    -6.3385  -6.1435  -6.0913  -6.0557  -5.9969  -5.9729  -5.9173  -5.8632
    -5.8051  -5.7079  -5.6940  -5.6636  -5.5616  -5.5444  -5.3508  -5.1882
    -5.1129  -4.6097  -3.6733  -3.0851  -2.5985  -2.3983  -2.1059  -1.6167
    -1.5024  -1.2663  -1.1438  -0.9916  -0.8724  -0.6075  -0.4873  -0.3173
    -0.2672  -0.0604  -0.0500   0.0867   0.3307   0.4029   0.5426   0.7544
     0.8794   0.9397   1.0731   1.2195   1.5004   1.6933   1.7600   1.8762
     1.9362   2.2678   2.3550   2.4977   2.5907

          k = 0.0000-0.1008 0.0000 ( 18962 PWs)   bands (ev):

   -79.4034 -79.4020 -79.2304 -79.2262 -79.1041 -79.1040 -41.2142 -41.2136
   -41.0505 -41.0489 -41.0459 -41.0451 -40.9677 -40.9571 -40.9487 -40.9420
   -40.8140 -40.8135 -40.7892 -40.7887 -40.7701 -40.7664 -40.6671 -40.6668
    -8.2814  -7.4832  -7.4627  -7.1019  -7.0962  -6.9517  -6.9419  -6.8473
    -6.8036  -6.6880  -6.6839  -6.4853  -6.4386  -6.3537  -6.3366  -6.2713
    -6.2579  -6.1574  -6.1474  -6.1180  -6.1109  -6.0485  -6.0371  -5.9957
    -5.9662  -5.8419  -5.8334  -5.6969  -5.6779  -5.6349  -5.6163  -5.5258
    -5.5067  -4.6520  -4.5808  -2.9438  -2.8335  -2.3844  -2.2248  -1.5082
    -1.4235  -1.1664  -1.1034  -0.8053  -0.6969  -0.5920  -0.4704  -0.3350
    -0.0864  -0.0086   0.0050   0.0855   0.2546   0.2854   0.3480   0.4209
     0.6146   0.7002   0.8206   0.9341   1.1617   1.2511   1.7210   1.7384
     1.8811   1.9869   2.3550   2.4460   2.4860

          k = 0.0274-0.0142 0.0000 ( 18916 PWs)   bands (ev):

   -79.4177 -79.3876 -79.2437 -79.2128 -79.1191 -79.0890 -41.3051 -41.2466
   -41.2088 -41.1844 -41.0750 -41.0450 -41.0200 -40.9781 -40.9240 -40.8393
   -40.8000 -40.7869 -40.7813 -40.7591 -40.6922 -40.6698 -40.6380 -40.5264
    -8.7215  -8.2394  -7.8107  -7.7381  -7.7273  -7.5647  -7.4670  -7.3031
    -7.2149  -7.0229  -7.0202  -6.8979  -6.8752  -6.6906  -6.4414  -6.2888
    -6.1928  -6.1876  -6.0783  -6.0557  -5.9109  -5.9050  -5.8072  -5.7428
    -5.7015  -5.5278  -5.4686  -5.3778  -5.3561  -5.2674  -5.2021  -5.0096
    -4.4014  -3.3954  -2.8999  -2.3904  -2.3009  -2.2267  -2.1783  -1.9628
    -1.8851  -1.6843  -1.3615  -1.0508  -1.0417  -0.6728  -0.6238  -0.6121
    -0.2461  -0.2359   0.0253   0.2149   0.3269   0.4288   0.8858   1.0197
     1.2804   1.4716   1.5332   1.8088   1.8580   2.0000   2.1731   2.3430
     2.3960   2.5658   2.7079   2.7576   3.0630

          k = 0.0274 0.0194 0.0000 ( 18915 PWs)   bands (ev):

   -79.4157 -79.3896 -79.2417 -79.2149 -79.1171 -79.0910 -41.2714 -41.2399
   -41.1884 -41.1771 -41.0711 -41.0238 -41.0113 -40.9743 -40.9277 -40.8356
   -40.8175 -40.7962 -40.7908 -40.7692 -40.6975 -40.6888 -40.6436 -40.5621
    -8.6696  -8.1228  -7.7429  -7.6828  -7.5617  -7.4264  -7.4171  -7.3027
    -7.2634  -7.0232  -6.9835  -6.9087  -6.8454  -6.6030  -6.4568  -6.3236
    -6.2284  -6.1325  -6.1236  -6.0880  -6.0172  -5.9308  -5.8462  -5.8356
    -5.7215  -5.5351  -5.5118  -5.4438  -5.4001  -5.3651  -5.3110  -5.0973
    -4.5906  -3.1983  -3.1505  -2.5083  -2.4600  -2.2288  -2.1132  -1.9468
    -1.7811  -1.7027  -1.1959  -0.9672  -0.7857  -0.5751  -0.3227  -0.2614
    -0.0550   0.0068   0.1224   0.3254   0.4907   0.6728   0.8192   0.9902
     1.1466   1.3021   1.4388   1.4672   1.7368   1.9095   2.1029   2.1927
     2.2530   2.4425   2.6321   2.6746   2.7724

          k = 0.0274 0.0530 0.0000 ( 18960 PWs)   bands (ev):

   -79.4103 -79.3951 -79.2362 -79.2203 -79.1116 -79.0965 -41.2291 -41.1992
   -41.1765 -41.0857 -41.0608 -41.0340 -40.9644 -40.9380 -40.9188 -40.9155
   -40.8334 -40.8256 -40.7980 -40.7848 -40.7449 -40.6796 -40.6599 -40.6535
    -8.4408  -7.7346  -7.5083  -7.4556  -7.3472  -7.2053  -7.1737  -7.0489
    -6.9714  -6.9523  -6.8362  -6.7323  -6.6303  -6.5183  -6.4307  -6.3601
    -6.3379  -6.1644  -6.1401  -6.0604  -5.9983  -5.9790  -5.9436  -5.8724
    -5.8019  -5.7071  -5.6952  -5.6690  -5.5644  -5.5506  -5.3650  -5.1775
    -5.1423  -4.4626  -3.6763  -3.0152  -2.5166  -2.2168  -1.8144  -1.7154
    -1.5146  -1.2649  -0.9151  -0.8867  -0.7121  -0.4129  -0.3163  -0.2523
    -0.0451   0.0817   0.1602   0.2204   0.4229   0.5266   0.5666   0.6370
     0.8405   0.9631   1.0041   1.0655   1.2999   1.4522   1.6130   1.7152
     1.8388   1.8525   2.4457   2.5347   2.7428

          k = 0.0274-0.1150 0.0000 ( 18975 PWs)   bands (ev):

   -79.4034 -79.4020 -79.2304 -79.2262 -79.1041 -79.1040 -41.2143 -41.2136
   -41.0504 -41.0491 -41.0460 -41.0450 -40.9677 -40.9571 -40.9487 -40.9420
   -40.8140 -40.8135 -40.7892 -40.7887 -40.7702 -40.7664 -40.6671 -40.6668
    -8.2834  -7.4932  -7.4473  -7.1067  -7.0577  -6.9686  -6.9611  -6.8485
    -6.7729  -6.6929  -6.6727  -6.5726  -6.4166  -6.3616  -6.2906  -6.2619
    -6.2298  -6.1796  -6.1417  -6.1186  -6.0897  -6.0621  -6.0401  -6.0046
    -5.9795  -5.8573  -5.8424  -5.7322  -5.6569  -5.6479  -5.6201  -5.5545
    -5.3811  -4.7121  -4.6361  -2.9093  -2.7745  -2.6482  -1.9823  -1.5735
    -1.2985  -1.1009  -1.0581  -0.8189  -0.7443  -0.5544  -0.4613  -0.2899
    -0.1504  -0.0779   0.0506   0.1337   0.2114   0.3273   0.4967   0.5405
     0.6064   0.6690   0.7918   0.9769   1.0212   1.2638   1.3916   1.5743
     1.8351   1.9156   1.9787   2.3247   2.7468

          k = 0.0274-0.0814 0.0000 ( 18957 PWs)   bands (ev):

   -79.4103 -79.3951 -79.2362 -79.2203 -79.1116 -79.0965 -41.2293 -41.1991
   -41.1768 -41.0858 -41.0613 -41.0339 -40.9647 -40.9380 -40.9189 -40.9154
   -40.8333 -40.8260 -40.7981 -40.7846 -40.7449 -40.6797 -40.6598 -40.6535
    -8.3171  -7.5671  -7.4355  -7.3681  -7.3236  -7.0766  -7.0448  -7.0103
    -6.8792  -6.8638  -6.7017  -6.6209  -6.5390  -6.5330  -6.4153  -6.3710
    -6.3219  -6.1149  -6.0695  -6.0362  -5.9785  -5.9356  -5.8909  -5.8277
    -5.8051  -5.7047  -5.6948  -5.6531  -5.5502  -5.5296  -5.3414  -5.2240
    -5.1009  -4.8824  -3.7548  -3.4205  -2.8222  -2.5318  -1.9890  -1.9028
    -1.6853  -1.6002  -1.3688  -1.2080  -1.0063  -0.8521  -0.6781  -0.4726
    -0.3929  -0.3512  -0.2159   0.0236   0.2085   0.3186   0.6082   0.7736
     0.8311   1.0196   1.1365   1.3994   1.5422   1.7146   1.7978   1.8920
     2.0190   2.0947   2.1913   2.4924   2.7991

          k = 0.0274-0.0478 0.0000 ( 18945 PWs)   bands (ev):

   -79.4157 -79.3896 -79.2416 -79.2149 -79.1170 -79.0910 -41.2716 -41.2401
   -41.1884 -41.1772 -41.0716 -41.0238 -41.0114 -40.9746 -40.9279 -40.8360
   -40.8176 -40.7961 -40.7910 -40.7692 -40.6975 -40.6888 -40.6436 -40.5622
    -8.5221  -8.0403  -7.6991  -7.6192  -7.5373  -7.3893  -7.3318  -7.2371
    -7.1851  -6.9019  -6.8987  -6.8314  -6.7634  -6.6208  -6.3604  -6.2838
    -6.2161  -6.1232  -6.0602  -6.0186  -5.9807  -5.8917  -5.8284  -5.7719
    -5.7104  -5.5484  -5.5065  -5.4316  -5.3905  -5.3437  -5.3009  -5.1012
    -4.5965  -3.5739  -3.3813  -2.9165  -2.5914  -2.3993  -2.3481  -1.9909
    -1.8956  -1.7758  -1.3185  -1.1551  -1.0416  -0.9345  -0.7484  -0.6793
    -0.4732  -0.3795  -0.3235  -0.0299   0.2287   0.2776   0.8040   0.9225
     1.1764   1.2830   1.3447   1.6344   1.8076   2.0373   2.1446   2.1987
     2.3342   2.4050   2.7063   2.9919   3.0724

          k = 0.0549-0.0284 0.0000 ( 18948 PWs)   bands (ev):

   -79.4177 -79.3876 -79.2437 -79.2128 -79.1191 -79.0890 -41.3053 -41.2469
   -41.2089 -41.1844 -41.0756 -41.0451 -41.0200 -40.9785 -40.9241 -40.8399
   -40.7998 -40.7870 -40.7815 -40.7591 -40.6922 -40.6699 -40.6381 -40.5265
    -8.5192  -8.1721  -7.7584  -7.6716  -7.6643  -7.5434  -7.3400  -7.1833
    -7.1221  -6.9183  -6.8238  -6.8022  -6.7650  -6.7031  -6.3240  -6.1931
    -6.1820  -6.1630  -5.9792  -5.9418  -5.8964  -5.8766  -5.7425  -5.6794
    -5.6605  -5.5202  -5.4759  -5.3548  -5.3533  -5.2580  -5.1941  -5.0078
    -4.4002  -4.0561  -3.1307  -2.7773  -2.5749  -2.5470  -2.2334  -2.2036
    -2.0340  -1.7948  -1.5214  -1.4319  -1.1453  -1.1166  -1.0254  -0.9807
    -0.7848  -0.6564  -0.3308  -0.2879  -0.0716   0.0550   0.3488   0.9862
     1.3036   1.4188   1.5884   1.8612   1.8704   1.9155   2.1730   2.3407
     2.4647   2.5916   2.6521   3.0673   3.0675

          k = 0.0549 0.0052 0.0000 ( 18945 PWs)   bands (ev):

   -79.4157 -79.3896 -79.2416 -79.2149 -79.1170 -79.0910 -41.2716 -41.2401
   -41.1884 -41.1772 -41.0716 -41.0238 -41.0114 -40.9746 -40.9279 -40.8360
   -40.8176 -40.7961 -40.7910 -40.7692 -40.6975 -40.6888 -40.6436 -40.5622
    -8.5221  -8.0403  -7.6991  -7.6192  -7.5373  -7.3893  -7.3318  -7.2371
    -7.1851  -6.9019  -6.8987  -6.8314  -6.7634  -6.6208  -6.3604  -6.2838
    -6.2161  -6.1232  -6.0602  -6.0186  -5.9806  -5.8917  -5.8284  -5.7719
    -5.7104  -5.5484  -5.5065  -5.4316  -5.3905  -5.3437  -5.3009  -5.1012
    -4.5965  -3.5739  -3.3813  -2.9165  -2.5914  -2.3993  -2.3481  -1.9909
    -1.8954  -1.7759  -1.3183  -1.1553  -1.0414  -0.9345  -0.7482  -0.6796
    -0.4732  -0.3794  -0.3236  -0.0300   0.2286   0.2778   0.8041   0.9224
     1.1764   1.2830   1.3444   1.6343   1.8075   2.0374   2.1449   2.1988
     2.3342   2.4049   2.7062   2.9916   3.0724

          k = 0.0549 0.0388 0.0000 ( 18947 PWs)   bands (ev):

   -79.4103 -79.3951 -79.2362 -79.2203 -79.1116 -79.0965 -41.2291 -41.1991
   -41.1766 -41.0857 -41.0609 -41.0340 -40.9645 -40.9381 -40.9189 -40.9154
   -40.8333 -40.8256 -40.7981 -40.7847 -40.7448 -40.6796 -40.6599 -40.6535
    -8.3967  -7.6727  -7.4948  -7.4286  -7.3418  -7.1606  -7.1439  -7.0370
    -6.9335  -6.9217  -6.8106  -6.6966  -6.5961  -6.5240  -6.4299  -6.3679
    -6.3385  -6.1435  -6.0913  -6.0557  -5.9970  -5.9729  -5.9173  -5.8632
    -5.8051  -5.7079  -5.6940  -5.6636  -5.5615  -5.5445  -5.3508  -5.1882
    -5.1130  -4.6097  -3.6733  -3.0851  -2.5985  -2.3984  -2.1059  -1.6167
    -1.5024  -1.2662  -1.1438  -0.9916  -0.8725  -0.6076  -0.4873  -0.3171
    -0.2673  -0.0603  -0.0503   0.0866   0.3306   0.4034   0.5427   0.7544
     0.8793   0.9395   1.0730   1.2196   1.5003   1.6932   1.7600   1.8762
     1.9362   2.2680   2.3547   2.4977   2.5903

          k = 0.0549-0.1292 0.0000 ( 18975 PWs)   bands (ev):

   -79.4034 -79.4020 -79.2304 -79.2262 -79.1041 -79.1040 -41.2142 -41.2136
   -41.0502 -41.0492 -41.0462 -41.0448 -40.9677 -40.9572 -40.9488 -40.9419
   -40.8140 -40.8135 -40.7892 -40.7887 -40.7702 -40.7664 -40.6671 -40.6668
    -8.2834  -7.4932  -7.4473  -7.1067  -7.0577  -6.9687  -6.9610  -6.8485
    -6.7729  -6.6929  -6.6727  -6.5726  -6.4166  -6.3616  -6.2906  -6.2619
    -6.2298  -6.1796  -6.1417  -6.1186  -6.0897  -6.0621  -6.0401  -6.0046
    -5.9795  -5.8573  -5.8424  -5.7322  -5.6569  -5.6479  -5.6201  -5.5545
    -5.3811  -4.7121  -4.6361  -2.9093  -2.7745  -2.6481  -1.9824  -1.5733
    -1.2986  -1.1010  -1.0581  -0.8189  -0.7442  -0.5543  -0.4615  -0.2899
    -0.1503  -0.0779   0.0506   0.1338   0.2116   0.3269   0.4965   0.5407
     0.6062   0.6692   0.7919   0.9769   1.0213   1.2637   1.3916   1.5744
     1.8350   1.9156   1.9786   2.3248   2.7467

          k = 0.0549-0.0956 0.0000 ( 18966 PWs)   bands (ev):

   -79.4103 -79.3951 -79.2362 -79.2203 -79.1116 -79.0965 -41.2294 -41.1991
   -41.1768 -41.0858 -41.0615 -41.0339 -40.9649 -40.9381 -40.9190 -40.9154
   -40.8333 -40.8262 -40.7981 -40.7845 -40.7449 -40.6797 -40.6598 -40.6535
    -8.2816  -7.5387  -7.3805  -7.3393  -7.3091  -7.0386  -6.9852  -6.9459
    -6.8856  -6.8434  -6.6175  -6.5990  -6.5107  -6.4845  -6.3985  -6.3538
    -6.3313  -6.1085  -6.0941  -6.0390  -5.9765  -5.9025  -5.8867  -5.7794
    -5.7543  -5.7411  -5.7033  -5.6414  -5.5478  -5.5042  -5.3428  -5.2555
    -5.2037  -5.0033  -3.8331  -3.4967  -3.0859  -2.3637  -2.2303  -1.8443
    -1.7682  -1.5941  -1.5399  -1.4336  -1.0552  -0.9092  -0.7521  -0.5428
    -0.4490  -0.4177  -0.2886   0.0290   0.1735   0.2972   0.6765   0.7168
     0.7770   1.0864   1.2032   1.3378   1.5697   1.6687   1.7383   1.7677
     1.9346   2.1150   2.1362   2.3714   2.8267

          k = 0.0549-0.0620 0.0000 ( 18967 PWs)   bands (ev):

   -79.4157 -79.3896 -79.2416 -79.2149 -79.1170 -79.0910 -41.2718 -41.2403
   -41.1885 -41.1773 -41.0721 -41.0238 -41.0115 -40.9750 -40.9279 -40.8365
   -40.8176 -40.7960 -40.7910 -40.7691 -40.6975 -40.6889 -40.6436 -40.5622
    -8.3857  -7.9624  -7.6220  -7.5560  -7.5323  -7.3660  -7.2266  -7.1999
    -7.0320  -6.8303  -6.7500  -6.6954  -6.6239  -6.6037  -6.3211  -6.2308
    -6.2023  -6.1142  -6.0588  -5.9734  -5.9028  -5.8680  -5.7910  -5.6879
    -5.6190  -5.5278  -5.5150  -5.4553  -5.4340  -5.3647  -5.3118  -5.1030
    -4.6040  -4.0358  -3.6676  -3.2542  -2.7710  -2.5507  -2.3697  -2.1461
    -2.0169  -1.8267  -1.6571  -1.4843  -1.3854  -1.2740  -0.9627  -0.8814
    -0.7999  -0.6949  -0.5030  -0.2797   0.0447   0.1710   0.5873   0.9000
     1.1537   1.2191   1.5455   1.7341   1.7879   2.0001   2.0501   2.1227
     2.2646   2.3100   2.5538   3.0106   3.1318

          k =-0.0823 0.0426 0.0000 ( 19002 PWs)   bands (ev):

   -79.4177 -79.3876 -79.2437 -79.2128 -79.1191 -79.0890 -41.3054 -41.2470
   -41.2091 -41.1845 -41.0759 -41.0453 -41.0201 -40.9787 -40.9243 -40.8402
   -40.7997 -40.7871 -40.7815 -40.7591 -40.6924 -40.6700 -40.6381 -40.5266
    -8.4209  -8.1426  -7.7282  -7.6385  -7.6283  -7.5396  -7.2646  -7.1697
    -7.0160  -6.8760  -6.7776  -6.7084  -6.6734  -6.5290  -6.3839  -6.1765
    -6.1750  -6.1077  -5.9556  -5.8893  -5.8861  -5.8217  -5.7045  -5.6679
    -5.6479  -5.5509  -5.4516  -5.3922  -5.3409  -5.2565  -5.1868  -5.0070
    -4.4043  -4.2785  -3.5108  -2.8122  -2.7825  -2.6701  -2.4000  -2.1877
    -2.0082  -1.8450  -1.6588  -1.6512  -1.5014  -1.2681  -1.1113  -1.0712
    -1.0524  -0.9013  -0.4400  -0.4394  -0.1482  -0.0507   0.1793   0.9738
     1.2193   1.5275   1.5786   1.8289   1.8998   1.9048   2.1087   2.3446
     2.4095   2.6265   2.6636   3.0907   3.0931

          k =-0.0823 0.0762 0.0000 ( 18967 PWs)   bands (ev):

   -79.4157 -79.3896 -79.2416 -79.2149 -79.1170 -79.0910 -41.2718 -41.2403
   -41.1885 -41.1773 -41.0721 -41.0238 -41.0115 -40.9750 -40.9279 -40.8365
   -40.8176 -40.7960 -40.7910 -40.7691 -40.6975 -40.6889 -40.6436 -40.5622
    -8.3857  -7.9624  -7.6220  -7.5560  -7.5323  -7.3660  -7.2266  -7.1999
    -7.0320  -6.8303  -6.7500  -6.6954  -6.6239  -6.6037  -6.3211  -6.2308
    -6.2023  -6.1142  -6.0588  -5.9734  -5.9028  -5.8680  -5.7910  -5.6879
    -5.6190  -5.5278  -5.5150  -5.4553  -5.4340  -5.3647  -5.3118  -5.1030
    -4.6040  -4.0359  -3.6676  -3.2541  -2.7710  -2.5508  -2.3697  -2.1461
    -2.0168  -1.8267  -1.6570  -1.4843  -1.3856  -1.2739  -0.9625  -0.8817
    -0.8000  -0.6948  -0.5031  -0.2797   0.0447   0.1711   0.5873   0.9001
     1.1537   1.2190   1.5455   1.7337   1.7881   2.0003   2.0500   2.1229
     2.2646   2.3100   2.5539   3.0106   3.1321

          k =-0.0823 0.1098 0.0000 ( 18957 PWs)   bands (ev):

   -79.4103 -79.3951 -79.2362 -79.2203 -79.1116 -79.0965 -41.2293 -41.1991
   -41.1768 -41.0858 -41.0613 -41.0339 -40.9647 -40.9380 -40.9189 -40.9154
   -40.8333 -40.8260 -40.7981 -40.7846 -40.7449 -40.6797 -40.6598 -40.6535
    -8.3171  -7.5671  -7.4355  -7.3681  -7.3236  -7.0766  -7.0448  -7.0103
    -6.8792  -6.8638  -6.7017  -6.6209  -6.5390  -6.5330  -6.4153  -6.3710
    -6.3219  -6.1149  -6.0695  -6.0362  -5.9785  -5.9356  -5.8909  -5.8277
    -5.8051  -5.7047  -5.6948  -5.6530  -5.5502  -5.5296  -5.3414  -5.2240
    -5.1009  -4.8824  -3.7549  -3.4205  -2.8222  -2.5318  -1.9891  -1.9029
    -1.6851  -1.6003  -1.3689  -1.2079  -1.0063  -0.8522  -0.6781  -0.4725
    -0.3928  -0.3513  -0.2161   0.0235   0.2084   0.3189   0.6083   0.7735
     0.8311   1.0194   1.1365   1.3995   1.5421   1.7146   1.7977   1.8923
     2.0189   2.0947   2.1912   2.4925   2.7990

          k =-0.0823-0.0582 0.0000 ( 18962 PWs)   bands (ev):

   -79.4034 -79.4020 -79.2304 -79.2262 -79.1041 -79.1040 -41.2142 -41.2136
   -41.0501 -41.0493 -41.0463 -41.0447 -40.9676 -40.9572 -40.9488 -40.9419
   -40.8140 -40.8135 -40.7892 -40.7887 -40.7702 -40.7664 -40.6671 -40.6668
    -8.2814  -7.4832  -7.4627  -7.1019  -7.0962  -6.9518  -6.9418  -6.8473
    -6.8036  -6.6880  -6.6838  -6.4853  -6.4386  -6.3538  -6.3365  -6.2714
    -6.2578  -6.1573  -6.1474  -6.1180  -6.1109  -6.0485  -6.0371  -5.9957
    -5.9661  -5.8419  -5.8334  -5.6969  -5.6780  -5.6349  -5.6164  -5.5258
    -5.5067  -4.6520  -4.5809  -2.9437  -2.8336  -2.3844  -2.2248  -1.5081
    -1.4236  -1.1667  -1.1033  -0.8051  -0.6967  -0.5924  -0.4705  -0.3349
    -0.0863  -0.0085   0.0053   0.0854   0.2545   0.2855   0.3472   0.4215
     0.6140   0.7006   0.8208   0.9340   1.1623   1.2505   1.7206   1.7387
     1.8810   1.9874   2.3551   2.4457   2.4856

     the Fermi energy is     1.3363 ev

!    total energy              =   -1818.05497102 Ry
     Harris-Foulkes estimate   =   -1818.05495203 Ry
     estimated scf accuracy    <       0.00000749 Ry

     The total energy is the sum of the following terms:

     one-electron contribution =  -12901.07952460 Ry
     hartree contribution      =    6486.10542331 Ry
     xc contribution           =    -570.30844342 Ry
     ewald contribution        =    5167.29302938 Ry
     electric field correction =       0.00025929 Ry
     smearing contrib. (-TS)   =      -0.06571498 Ry

     convergence has been achieved in  16 iterations
 
 BEEF-vdW xc energy contributions
           1 :   -503.989382705114     
           2 :    466.589139016702     
           3 :   -400.261007813648     
           4 :    318.807517941016     
           5 :   -236.920791742971     
           6 :    166.185000006543     
           7 :   -112.662961977953     
           8 :    76.5996112211105     
           9 :   -54.0232136838567     
          10 :    39.3536333393042     
          11 :   -27.8705632326671     
          12 :    17.1278368870995     
          13 :   -7.00830756498976     
          14 :   -1.25151948435041     
          15 :    6.36995846470938     
          16 :   -7.99266972809573     
          17 :    6.95796270128346     
          18 :   -4.87493856057176     
          19 :    3.34663786869771     
          20 :   -3.28667785571520     
          21 :    4.65574618076380     
          22 :   -6.68522001002304     
          23 :    8.39911460995165     
          24 :   -9.13206327107514     
          25 :    8.79455692590386     
          26 :   -7.80235102623988     
          27 :    6.76423872589089     
          28 :   -6.13029254974981     
          29 :    5.98830325098720     
          30 :   -6.09107155545507     
          31 :   -44.1393062943152     
          32 :   -32.6541304166337     

     Forces acting on atoms (Ry/au):


     negative rho (up, down):  7.803E-01 0.000E+00
     atom    1 type  1   force =     0.01083776   -0.00574634   -0.05856686
     atom    2 type  2   force =    -0.03306850    0.01634712    0.07081086
     atom    3 type  1   force =     0.01048702   -0.00529271   -0.06022728
     atom    4 type  2   force =    -0.03236404    0.01749371    0.07066947
     atom    5 type  1   force =     0.00024456   -0.00041157   -0.00774564
     atom    6 type  2   force =     0.01146275   -0.00578393   -0.01298408
     atom    7 type  1   force =     0.00073411   -0.00009086   -0.00240079
     atom    8 type  2   force =     0.01120180   -0.00589516   -0.01268767
     atom    9 type  1   force =    -0.00370316    0.00176121    0.04676035
     atom   10 type  2   force =     0.02702651    0.01387587    0.05425552
     atom   11 type  2   force =     0.00451446   -0.03016985    0.05413757
     atom   12 type  1   force =    -0.02258046    0.01182583    0.04866476
     atom   13 type  3   force =     0.01520718   -0.00791332   -0.19068622

     Total force =     0.222721     Total SCF correction =     0.005793


     entering subroutine stress ...


     negative rho (up, down):  7.803E-01 0.000E+00
          total   stress  (Ry/bohr**3)                   (kbar)     P=  -27.73
  -0.00021600   0.00000553   0.00006749        -31.77      0.81      9.93
   0.00000553  -0.00020817  -0.00003488          0.81    -30.62     -5.13
   0.00006749  -0.00003488  -0.00014133          9.93     -5.13    -20.79


     BFGS Geometry Optimization

     number of scf cycles    =   1
     number of bfgs steps    =   0

     energy   new            =   -1818.0549710167 Ry

     new trust radius        =       0.1914552500 bohr
     new conv_thr            =       0.0000099958 Ry


ATOMIC_POSITIONS (crystal)
Hg1      0.035469879   0.232265060   0.403574237    0   0   0
Re1      0.535469879   0.232265060   0.403574237    0   0   0
Hg1      0.035469879   0.732265060   0.403574237    0   0   0
Re1      0.535469879   0.732265060   0.403574237    0   0   0
Hg1      0.767734940   0.866132530   0.500000000    0   0   0
Re1      0.267734940   0.366132530   0.500000000    0   0   0
Hg1      0.767734940   0.366132530   0.500000000    0   0   0
Re1      0.267734940   0.866132530   0.500000000    0   0   0
Hg1      0.499598093   0.000187915   0.597424388
Re1      0.001728591   0.001480506   0.597584457
Re1      0.001752854   0.496780985   0.597581938
Hg1      0.497500354   0.501261774   0.597465059
C1       0.001681130   0.249155677   0.658685808



     Writing output data file calc.save
     Check: negative starting charge=   -0.775718
     NEW-OLD atomic charge density approx. for the potential
     Check: negative starting charge=   -0.776859

     negative rho (up, down):  7.812E-01 0.000E+00
 
     Adding external electric field

     Computed dipole along edir(3) : 
        Dipole               -0.2682 Ry au,         -0.6818 Debye
        Dipole field         -0.0007 Ry au
 
        Potential amp.        0.0611 Ry
        Total length         45.6541 bohr
 

     total cpu time spent up to now is      263.1 secs

     per-process dynamical memory:    44.7 Mb

     Self-consistent Calculation

     iteration #  1     ecut=    36.75 Ry     beta=0.30
     Davidson diagonalization with overlap
     ethr =  1.00E-06,  avg # of iterations =  8.9

     negative rho (up, down):  7.817E-01 0.000E+00
 
     Adding external electric field

     Computed dipole along edir(3) : 
        Dipole               -1.0370 Ry au,         -2.6359 Debye
        Dipole field         -0.0026 Ry au
 
        Potential amp.        0.2362 Ry
        Total length         45.6541 bohr
 

     total cpu time spent up to now is      289.6 secs

     total energy              =   -1818.05846604 Ry
     Harris-Foulkes estimate   =   -1818.10139864 Ry
     estimated scf accuracy    <       0.09309390 Ry

     iteration #  2     ecut=    36.75 Ry     beta=0.30
     Davidson diagonalization with overlap
     ethr =  5.61E-05,  avg # of iterations =  6.2

     negative rho (up, down):  7.816E-01 0.000E+00
 
     Adding external electric field

     Computed dipole along edir(3) : 
        Dipole               -0.2880 Ry au,         -0.7320 Debye
        Dipole field         -0.0007 Ry au
 
        Potential amp.        0.0656 Ry
        Total length         45.6541 bohr
 

     total cpu time spent up to now is      308.1 secs

     total energy              =   -1817.75401127 Ry
     Harris-Foulkes estimate   =   -1818.41599302 Ry
     estimated scf accuracy    <      19.23878207 Ry

     iteration #  3     ecut=    36.75 Ry     beta=0.30
     Davidson diagonalization with overlap
     ethr =  5.61E-05,  avg # of iterations =  6.2

     negative rho (up, down):  7.814E-01 0.000E+00
 
     Adding external electric field

     Computed dipole along edir(3) : 
        Dipole               -0.3080 Ry au,         -0.7828 Debye
        Dipole field         -0.0008 Ry au
 
        Potential amp.        0.0701 Ry
        Total length         45.6541 bohr
 

     total cpu time spent up to now is      326.5 secs

     total energy              =   -1818.08516225 Ry
     Harris-Foulkes estimate   =   -1818.10984307 Ry
     estimated scf accuracy    <       0.32135352 Ry

     iteration #  4     ecut=    36.75 Ry     beta=0.30
     Davidson diagonalization with overlap
     ethr =  5.61E-05,  avg # of iterations =  3.3

     negative rho (up, down):  7.813E-01 0.000E+00
 
     Adding external electric field

     Computed dipole along edir(3) : 
        Dipole               -0.2702 Ry au,         -0.6869 Debye
        Dipole field         -0.0007 Ry au
 
        Potential amp.        0.0615 Ry
        Total length         45.6541 bohr
 

     total cpu time spent up to now is      338.3 secs

     total energy              =   -1818.09731958 Ry
     Harris-Foulkes estimate   =   -1818.10010623 Ry
     estimated scf accuracy    <       0.02071874 Ry

     iteration #  5     ecut=    36.75 Ry     beta=0.30
     Davidson diagonalization with overlap
     ethr =  1.25E-05,  avg # of iterations =  3.9

     negative rho (up, down):  7.814E-01 0.000E+00
 
     Adding external electric field

     Computed dipole along edir(3) : 
        Dipole               -0.2727 Ry au,         -0.6931 Debye
        Dipole field         -0.0007 Ry au
 
        Potential amp.        0.0621 Ry
        Total length         45.6541 bohr
 

     total cpu time spent up to now is      350.6 secs

     total energy              =   -1818.09901479 Ry
     Harris-Foulkes estimate   =   -1818.09927382 Ry
     estimated scf accuracy    <       0.00152922 Ry

     iteration #  6     ecut=    36.75 Ry     beta=0.30
     Davidson diagonalization with overlap
     ethr =  9.21E-07,  avg # of iterations =  6.2

     negative rho (up, down):  7.814E-01 0.000E+00
 
     Adding external electric field

     Computed dipole along edir(3) : 
        Dipole               -0.2741 Ry au,         -0.6967 Debye
        Dipole field         -0.0007 Ry au
 
        Potential amp.        0.0624 Ry
        Total length         45.6541 bohr
 

     total cpu time spent up to now is      366.1 secs

     total energy              =   -1818.09917683 Ry
     Harris-Foulkes estimate   =   -1818.09924039 Ry
     estimated scf accuracy    <       0.00039061 Ry

     iteration #  7     ecut=    36.75 Ry     beta=0.30
     Davidson diagonalization with overlap
     ethr =  2.35E-07,  avg # of iterations =  3.7

     negative rho (up, down):  7.814E-01 0.000E+00
 
     Adding external electric field

     Computed dipole along edir(3) : 
        Dipole               -0.2723 Ry au,         -0.6922 Debye
        Dipole field         -0.0007 Ry au
 
        Potential amp.        0.0620 Ry
        Total length         45.6541 bohr
 

     total cpu time spent up to now is      379.3 secs

     total energy              =   -1818.09921017 Ry
     Harris-Foulkes estimate   =   -1818.09926581 Ry
     estimated scf accuracy    <       0.00043297 Ry

     iteration #  8     ecut=    36.75 Ry     beta=0.30
     Davidson diagonalization with overlap
     ethr =  2.35E-07,  avg # of iterations =  2.4

     negative rho (up, down):  7.814E-01 0.000E+00
 
     Adding external electric field

     Computed dipole along edir(3) : 
        Dipole               -0.2714 Ry au,         -0.6900 Debye
        Dipole field         -0.0007 Ry au
 
        Potential amp.        0.0618 Ry
        Total length         45.6541 bohr
 

     total cpu time spent up to now is      390.5 secs

     total energy              =   -1818.09923940 Ry
     Harris-Foulkes estimate   =   -1818.09925332 Ry
     estimated scf accuracy    <       0.00010417 Ry

     iteration #  9     ecut=    36.75 Ry     beta=0.30
     Davidson diagonalization with overlap
     ethr =  6.28E-08,  avg # of iterations =  4.1

     negative rho (up, down):  7.814E-01 0.000E+00
 
     Adding external electric field

     Computed dipole along edir(3) : 
        Dipole               -0.2710 Ry au,         -0.6889 Debye
        Dipole field         -0.0007 Ry au
 
        Potential amp.        0.0617 Ry
        Total length         45.6541 bohr
 

     total cpu time spent up to now is      403.6 secs

     total energy              =   -1818.09925343 Ry
     Harris-Foulkes estimate   =   -1818.09926282 Ry
     estimated scf accuracy    <       0.00011385 Ry

     iteration # 10     ecut=    36.75 Ry     beta=0.30
     Davidson diagonalization with overlap
     ethr =  6.28E-08,  avg # of iterations =  1.1

     negative rho (up, down):  7.814E-01 0.000E+00
 
     Adding external electric field

     Computed dipole along edir(3) : 
        Dipole               -0.2716 Ry au,         -0.6902 Debye
        Dipole field         -0.0007 Ry au
 
        Potential amp.        0.0618 Ry
        Total length         45.6541 bohr
 

     total cpu time spent up to now is      414.1 secs

     total energy              =   -1818.09925955 Ry
     Harris-Foulkes estimate   =   -1818.09925952 Ry
     estimated scf accuracy    <       0.00001255 Ry

     iteration # 11     ecut=    36.75 Ry     beta=0.30
     Davidson diagonalization with overlap
     ethr =  7.56E-09,  avg # of iterations =  4.6

     negative rho (up, down):  7.815E-01 0.000E+00
 
     Adding external electric field

     Computed dipole along edir(3) : 
        Dipole               -0.2722 Ry au,         -0.6918 Debye
        Dipole field         -0.0007 Ry au
 
        Potential amp.        0.0620 Ry
        Total length         45.6541 bohr
 

     total cpu time spent up to now is      428.3 secs

     total energy              =   -1818.09926148 Ry
     Harris-Foulkes estimate   =   -1818.09926213 Ry
     estimated scf accuracy    <       0.00001753 Ry

     iteration # 12     ecut=    36.75 Ry     beta=0.30
     Davidson diagonalization with overlap
     ethr =  7.56E-09,  avg # of iterations =  2.0

     negative rho (up, down):  7.815E-01 0.000E+00

     negative rho (up, down):  7.815E-01 0.000E+00

     negative rho (up, down):  7.815E-01 0.000E+00

     negative rho (up, down):  7.815E-01 0.000E+00

     negative rho (up, down):  7.815E-01 0.000E+00

     negative rho (up, down):  7.815E-01 0.000E+00

     negative rho (up, down):  7.815E-01 0.000E+00

     negative rho (up, down):  7.815E-01 0.000E+00

     negative rho (up, down):  7.815E-01 0.000E+00

     negative rho (up, down):  7.815E-01 0.000E+00

     negative rho (up, down):  7.815E-01 0.000E+00

     negative rho (up, down):  7.815E-01 0.000E+00

     negative rho (up, down):  7.815E-01 0.000E+00

     negative rho (up, down):  7.815E-01 0.000E+00

     negative rho (up, down):  7.815E-01 0.000E+00

     negative rho (up, down):  7.815E-01 0.000E+00

     negative rho (up, down):  7.815E-01 0.000E+00

     negative rho (up, down):  7.815E-01 0.000E+00

     negative rho (up, down):  7.815E-01 0.000E+00

     negative rho (up, down):  7.815E-01 0.000E+00

     negative rho (up, down):  7.815E-01 0.000E+00

     negative rho (up, down):  7.815E-01 0.000E+00

     negative rho (up, down):  7.815E-01 0.000E+00

     negative rho (up, down):  7.815E-01 0.000E+00

     negative rho (up, down):  7.815E-01 0.000E+00

     negative rho (up, down):  7.815E-01 0.000E+00

     negative rho (up, down):  7.815E-01 0.000E+00

     negative rho (up, down):  7.815E-01 0.000E+00

     negative rho (up, down):  7.815E-01 0.000E+00

     negative rho (up, down):  7.815E-01 0.000E+00

     negative rho (up, down):  7.815E-01 0.000E+00

     negative rho (up, down):  7.815E-01 0.000E+00

     negative rho (up, down):  7.815E-01 0.000E+00

     negative rho (up, down):  7.815E-01 0.000E+00

     negative rho (up, down):  7.815E-01 0.000E+00
 
     Adding external electric field

     Computed dipole along edir(3) : 
        Dipole               -0.2736 Ry au,         -0.6953 Debye
        Dipole field         -0.0007 Ry au
 
        Potential amp.        0.0623 Ry
        Total length         45.6541 bohr
 

     total cpu time spent up to now is      451.7 secs

     End of self-consistent calculation

          k = 0.0000 0.0000 0.0000 ( 18911 PWs)   bands (ev):

   -79.3744 -79.3443 -79.1955 -79.1642 -79.0815 -79.0513 -41.2654 -41.2135
   -41.1778 -41.1352 -41.0277 -41.0073 -40.9729 -40.9361 -40.8809 -40.8008
   -40.7630 -40.7525 -40.7416 -40.7335 -40.6565 -40.6298 -40.5980 -40.4887
    -9.0108  -8.3140  -7.7723  -7.7070  -7.6978  -7.5348  -7.4534  -7.2903
    -7.1428  -7.0288  -7.0237  -6.9039  -6.8529  -6.6308  -6.4488  -6.2423
    -6.1755  -6.1611  -6.1076  -6.0560  -5.8971  -5.8456  -5.7866  -5.7013
    -5.6463  -5.4742  -5.4167  -5.3446  -5.3234  -5.2312  -5.1621  -4.9706
    -4.3706  -3.2178  -2.5042  -2.3655  -2.2027  -2.1662  -2.0925  -1.7855
    -1.7276  -1.6229  -1.3009  -1.0611  -0.8877  -0.6102  -0.3772  -0.1509
    -0.0293   0.0268   0.0850   0.4214   0.9166   0.9378   1.2040   1.3177
     1.4498   1.4697   1.6831   1.7750   1.9582   1.9818   2.1843   2.3996
     2.4674   2.5128   2.6376   2.6585   2.7563

          k = 0.0000 0.0336 0.0000 ( 18915 PWs)   bands (ev):

   -79.3724 -79.3463 -79.1935 -79.1662 -79.0794 -79.0534 -41.2320 -41.1966
   -41.1564 -41.1392 -41.0241 -40.9767 -40.9738 -40.9326 -40.8846 -40.7972
   -40.7776 -40.7615 -40.7571 -40.7438 -40.6531 -40.6522 -40.6057 -40.5245
    -8.8996  -8.1228  -7.6709  -7.6047  -7.5160  -7.3727  -7.3576  -7.2269
    -7.1739  -6.9643  -6.9314  -6.8417  -6.7967  -6.5565  -6.4016  -6.2576
    -6.1756  -6.0955  -6.0894  -6.0347  -5.9593  -5.8835  -5.7980  -5.7725
    -5.6820  -5.4917  -5.4666  -5.4002  -5.3552  -5.3114  -5.2704  -5.0569
    -4.5558  -3.1781  -3.0970  -2.5142  -2.4324  -2.2006  -2.1448  -1.9300
    -1.8497  -1.6687  -1.2292  -1.0173  -0.8082  -0.5951  -0.3664  -0.2251
    -0.0389   0.0472   0.1516   0.3820   0.5288   0.6994   0.8532   1.0408
     1.1761   1.3393   1.4871   1.5135   1.7638   2.0056   2.1391   2.2310
     2.2770   2.5059   2.6684   2.7314   2.8189

          k = 0.0000 0.0672 0.0000 ( 18947 PWs)   bands (ev):

   -79.3669 -79.3518 -79.1880 -79.1717 -79.0740 -79.0589 -41.1820 -41.1501
   -41.1358 -41.0716 -41.0141 -40.9870 -40.9230 -40.8947 -40.8813 -40.8750
   -40.8164 -40.7872 -40.7595 -40.7463 -40.6974 -40.6438 -40.6227 -40.6165
    -8.6881  -7.6021  -7.4232  -7.3484  -7.2537  -7.0899  -7.0711  -6.9870
    -6.8801  -6.8497  -6.7579  -6.6473  -6.5493  -6.4556  -6.3761  -6.3079
    -6.2869  -6.0839  -6.0533  -6.0071  -5.9509  -5.9300  -5.8744  -5.8187
    -5.7605  -5.6626  -5.6533  -5.6240  -5.5204  -5.5043  -5.3114  -5.1438
    -5.0583  -4.5526  -3.6360  -3.0662  -2.6257  -2.3683  -2.1301  -1.6868
    -1.4886  -1.2840  -1.1678  -1.0352  -0.9476  -0.5766  -0.4507  -0.3410
    -0.2763  -0.0214  -0.0010   0.1294   0.3680   0.4518   0.5759   0.7873
     0.9136   1.0005   1.1109   1.2608   1.5668   1.7127   1.7928   1.9057
     1.9680   2.3024   2.4011   2.5250   2.6332

          k = 0.0000-0.1008 0.0000 ( 18962 PWs)   bands (ev):

   -79.3601 -79.3586 -79.1825 -79.1772 -79.0670 -79.0659 -41.1660 -41.1645
   -41.0092 -41.0072 -41.0011 -40.9995 -40.9741 -40.9124 -40.9068 -40.9030
   -40.7758 -40.7751 -40.7518 -40.7504 -40.7317 -40.7220 -40.6316 -40.6303
    -8.5875  -7.3901  -7.3744  -7.0245  -7.0204  -6.8753  -6.8612  -6.7832
    -6.7366  -6.6262  -6.6145  -6.4274  -6.3761  -6.3038  -6.2945  -6.2302
    -6.2070  -6.1143  -6.1038  -6.0740  -6.0644  -6.0062  -5.9928  -5.9527
    -5.9195  -5.7981  -5.7866  -5.6589  -5.6380  -5.5949  -5.5776  -5.4810
    -5.4636  -4.6073  -4.5268  -2.9633  -2.8163  -2.4109  -2.1915  -1.5210
    -1.3958  -1.2809  -1.2258  -0.7892  -0.7622  -0.5648  -0.5039  -0.3552
    -0.0421   0.0380   0.0569   0.1334   0.2857   0.3218   0.4008   0.4706
     0.6488   0.7397   0.9278   0.9454   1.1900   1.2922   1.7588   1.7640
     1.9039   2.0275   2.3980   2.4774   2.5176

          k = 0.0274-0.0142 0.0000 ( 18916 PWs)   bands (ev):

   -79.3744 -79.3443 -79.1955 -79.1642 -79.0815 -79.0513 -41.2655 -41.2136
   -41.1779 -41.1352 -41.0279 -41.0074 -40.9730 -40.9363 -40.8810 -40.8010
   -40.7629 -40.7525 -40.7416 -40.7335 -40.6565 -40.6298 -40.5981 -40.4887
    -8.9405  -8.2542  -7.7524  -7.6762  -7.6594  -7.5149  -7.3981  -7.2276
    -7.1230  -6.9727  -6.9639  -6.8539  -6.7998  -6.6447  -6.3881  -6.2244
    -6.1558  -6.1389  -6.0386  -6.0127  -5.8555  -5.8380  -5.7643  -5.7010
    -5.6357  -5.4850  -5.4149  -5.3325  -5.3114  -5.2228  -5.1618  -4.9698
    -4.3704  -3.3591  -2.8662  -2.4424  -2.2658  -2.2012  -2.1320  -2.0269
    -1.8615  -1.7060  -1.3212  -1.1305  -1.0363  -0.6805  -0.6324  -0.5921
    -0.2640  -0.1942   0.0663   0.2531   0.3560   0.4526   0.9220   1.0429
     1.3270   1.5029   1.5566   1.8615   1.8920   2.0524   2.1878   2.3887
     2.5748   2.5905   2.7469   2.7920   3.1290

          k = 0.0274 0.0194 0.0000 ( 18915 PWs)   bands (ev):

   -79.3724 -79.3463 -79.1935 -79.1662 -79.0794 -79.0534 -41.2320 -41.1966
   -41.1564 -41.1392 -41.0241 -40.9767 -40.9738 -40.9326 -40.8846 -40.7972
   -40.7776 -40.7615 -40.7571 -40.7438 -40.6531 -40.6522 -40.6057 -40.5245
    -8.8996  -8.1228  -7.6709  -7.6047  -7.5160  -7.3727  -7.3576  -7.2269
    -7.1739  -6.9643  -6.9314  -6.8417  -6.7967  -6.5565  -6.4016  -6.2576
    -6.1756  -6.0955  -6.0894  -6.0347  -5.9593  -5.8835  -5.7981  -5.7725
    -5.6820  -5.4917  -5.4666  -5.4002  -5.3552  -5.3114  -5.2704  -5.0569
    -4.5558  -3.1781  -3.0970  -2.5142  -2.4324  -2.2006  -2.1449  -1.9301
    -1.8497  -1.6686  -1.2293  -1.0172  -0.8083  -0.5951  -0.3664  -0.2249
    -0.0389   0.0472   0.1515   0.3821   0.5288   0.6994   0.8531   1.0408
     1.1762   1.3391   1.4871   1.5135   1.7639   2.0057   2.1390   2.2310
     2.2770   2.5058   2.6684   2.7314   2.8189

          k = 0.0274 0.0530 0.0000 ( 18960 PWs)   bands (ev):

   -79.3669 -79.3518 -79.1880 -79.1717 -79.0740 -79.0589 -41.1819 -41.1502
   -41.1358 -41.0716 -41.0140 -40.9870 -40.9229 -40.8946 -40.8813 -40.8751
   -40.8165 -40.7871 -40.7595 -40.7464 -40.6975 -40.6438 -40.6228 -40.6166
    -8.7198  -7.6772  -7.4338  -7.3769  -7.2572  -7.1362  -7.1011  -7.0001
    -6.9164  -6.8792  -6.7862  -6.6827  -6.5841  -6.4496  -6.3748  -6.3026
    -6.2823  -6.1200  -6.0943  -6.0100  -5.9531  -5.9339  -5.9015  -5.8277
    -5.7565  -5.6655  -5.6513  -5.6289  -5.5231  -5.5107  -5.3253  -5.1336
    -5.0892  -4.4024  -3.6429  -2.9947  -2.5393  -2.2735  -1.7839  -1.6986
    -1.5339  -1.3149  -1.0388  -0.9369  -0.6790  -0.4553  -0.2794  -0.2245
    -0.0205   0.1044   0.1891   0.2686   0.4756   0.5785   0.6024   0.6810
     0.8751   0.9954   1.0295   1.1324   1.3311   1.5269   1.6450   1.7274
     1.8733   1.8831   2.4647   2.5905   2.7909

          k = 0.0274-0.1150 0.0000 ( 18975 PWs)   bands (ev):

   -79.3601 -79.3586 -79.1825 -79.1772 -79.0670 -79.0659 -41.1660 -41.1645
   -41.0092 -41.0071 -41.0011 -40.9995 -40.9741 -40.9125 -40.9068 -40.9031
   -40.7759 -40.7750 -40.7518 -40.7504 -40.7317 -40.7221 -40.6316 -40.6303
    -8.5887  -7.4037  -7.3558  -7.0299  -6.9811  -6.8914  -6.8819  -6.7830
    -6.7059  -6.6294  -6.6057  -6.5070  -6.3653  -6.3129  -6.2457  -6.2183
    -6.1811  -6.1348  -6.0988  -6.0718  -6.0463  -6.0176  -5.9978  -5.9606
    -5.9350  -5.8147  -5.7964  -5.6900  -5.6193  -5.6089  -5.5827  -5.5144
    -5.3282  -4.6640  -4.5901  -2.9027  -2.7816  -2.6428  -1.9805  -1.5730
    -1.4208  -1.2194  -1.0422  -0.8024  -0.7326  -0.6135  -0.4981  -0.2724
    -0.1136  -0.0371   0.0971   0.1707   0.2597   0.3822   0.5319   0.5769
     0.6485   0.7099   0.8588   1.0132   1.0566   1.3028   1.4315   1.5978
     1.8617   1.9325   2.0199   2.3587   2.8116

          k = 0.0274-0.0814 0.0000 ( 18957 PWs)   bands (ev):

   -79.3669 -79.3518 -79.1880 -79.1717 -79.0740 -79.0589 -41.1822 -41.1501
   -41.1360 -41.0717 -41.0145 -40.9869 -40.9233 -40.8946 -40.8814 -40.8750
   -40.8164 -40.7876 -40.7595 -40.7462 -40.6974 -40.6439 -40.6227 -40.6165
    -8.6287  -7.4764  -7.3682  -7.2827  -7.2397  -7.0087  -6.9762  -6.9498
    -6.8214  -6.8024  -6.6413  -6.5697  -6.4872  -6.4670  -6.3665  -6.3124
    -6.2660  -6.0566  -6.0235  -5.9908  -5.9353  -5.8911  -5.8479  -5.7884
    -5.7578  -5.6629  -5.6522  -5.6147  -5.5103  -5.4861  -5.3019  -5.1774
    -5.0484  -4.8311  -3.7146  -3.3751  -2.8468  -2.5068  -2.0215  -1.8976
    -1.7087  -1.6332  -1.4084  -1.2309  -1.0074  -0.8390  -0.6889  -0.5151
    -0.3911  -0.3381  -0.1582   0.0622   0.2344   0.3777   0.6323   0.8348
     0.8635   1.0486   1.1779   1.4298   1.6096   1.7313   1.8365   1.9258
     2.0433   2.1209   2.2234   2.5282   2.8563

          k = 0.0274-0.0478 0.0000 ( 18945 PWs)   bands (ev):

   -79.3724 -79.3463 -79.1935 -79.1662 -79.0794 -79.0534 -41.2322 -41.1968
   -41.1565 -41.1393 -41.0245 -40.9768 -40.9739 -40.9329 -40.8848 -40.7976
   -40.7777 -40.7615 -40.7570 -40.7438 -40.6531 -40.6523 -40.6058 -40.5246
    -8.7994  -8.0047  -7.6233  -7.5403  -7.4868  -7.3461  -7.2625  -7.1463
    -7.1099  -6.8476  -6.8397  -6.7619  -6.7161  -6.5748  -6.3096  -6.2179
    -6.1583  -6.0861  -6.0073  -5.9725  -5.9332  -5.8412  -5.7638  -5.7303
    -5.6691  -5.5053  -5.4613  -5.3889  -5.3465  -5.2907  -5.2572  -5.0614
    -4.5616  -3.5232  -3.3306  -2.9108  -2.5746  -2.3738  -2.3542  -1.9877
    -1.9499  -1.7713  -1.3625  -1.2007  -1.0534  -0.8877  -0.7409  -0.6464
    -0.4803  -0.3853  -0.3053   0.0019   0.2488   0.3199   0.8373   0.9502
     1.2225   1.3129   1.3891   1.6655   1.8974   2.0609   2.1703   2.2465
     2.4010   2.4392   2.7507   3.0505   3.1107

          k = 0.0549-0.0284 0.0000 ( 18948 PWs)   bands (ev):

   -79.3744 -79.3443 -79.1955 -79.1642 -79.0814 -79.0513 -41.2657 -41.2138
   -41.1781 -41.1353 -41.0285 -41.0075 -40.9730 -40.9368 -40.8810 -40.8015
   -40.7627 -40.7526 -40.7417 -40.7336 -40.6565 -40.6299 -40.5982 -40.4889
    -8.8058  -8.1399  -7.7051  -7.6041  -7.5849  -7.4910  -7.2710  -7.0903
    -7.0461  -6.8690  -6.7620  -6.7561  -6.6875  -6.6606  -6.2723  -6.1454
    -6.1306  -6.1103  -5.9368  -5.8961  -5.8276  -5.8232  -5.7008  -5.6193
    -5.6137  -5.4788  -5.4233  -5.3106  -5.3077  -5.2117  -5.1554  -4.9682
    -4.3691  -3.9912  -3.1243  -2.7534  -2.5443  -2.5393  -2.2659  -2.2145
    -1.9975  -1.8235  -1.4654  -1.3889  -1.2545  -1.1204  -1.0017  -0.9496
    -0.7610  -0.6397  -0.3957  -0.2489  -0.0250   0.0815   0.3834   1.0065
     1.3378   1.4540   1.6226   1.8974   1.9068   1.9602   2.2161   2.3407
     2.4889   2.6908   2.8196   3.1307   3.2790

          k = 0.0549 0.0052 0.0000 ( 18945 PWs)   bands (ev):

   -79.3724 -79.3463 -79.1935 -79.1662 -79.0794 -79.0534 -41.2322 -41.1968
   -41.1565 -41.1393 -41.0245 -40.9768 -40.9739 -40.9329 -40.8848 -40.7976
   -40.7777 -40.7615 -40.7570 -40.7438 -40.6531 -40.6523 -40.6058 -40.5246
    -8.7994  -8.0047  -7.6233  -7.5403  -7.4868  -7.3461  -7.2624  -7.1463
    -7.1099  -6.8476  -6.8397  -6.7619  -6.7161  -6.5747  -6.3096  -6.2179
    -6.1583  -6.0861  -6.0073  -5.9725  -5.9332  -5.8412  -5.7638  -5.7303
    -5.6691  -5.5053  -5.4613  -5.3889  -5.3465  -5.2907  -5.2572  -5.0614
    -4.5616  -3.5232  -3.3306  -2.9107  -2.5746  -2.3738  -2.3542  -1.9877
    -1.9500  -1.7713  -1.3626  -1.2008  -1.0535  -0.8877  -0.7410  -0.6462
    -0.4802  -0.3852  -0.3054   0.0020   0.2489   0.3197   0.8372   0.9502
     1.2224   1.3129   1.3893   1.6656   1.8973   2.0609   2.1701   2.2465
     2.4010   2.4393   2.7507   3.0507   3.1106

          k = 0.0549 0.0388 0.0000 ( 18947 PWs)   bands (ev):

   -79.3669 -79.3518 -79.1880 -79.1717 -79.0740 -79.0589 -41.1820 -41.1501
   -41.1358 -41.0716 -41.0141 -40.9870 -40.9230 -40.8947 -40.8813 -40.8750
   -40.8164 -40.7872 -40.7595 -40.7463 -40.6974 -40.6438 -40.6227 -40.6165
    -8.6881  -7.6021  -7.4232  -7.3484  -7.2537  -7.0899  -7.0711  -6.9870
    -6.8801  -6.8497  -6.7579  -6.6473  -6.5493  -6.4556  -6.3761  -6.3079
    -6.2869  -6.0839  -6.0533  -6.0071  -5.9509  -5.9300  -5.8744  -5.8187
    -5.7605  -5.6626  -5.6533  -5.6240  -5.5204  -5.5043  -5.3114  -5.1438
    -5.0583  -4.5526  -3.6360  -3.0662  -2.6257  -2.3683  -2.1301  -1.6868
    -1.4886  -1.2842  -1.1677  -1.0353  -0.9475  -0.5766  -0.4507  -0.3409
    -0.2763  -0.0215  -0.0007   0.1295   0.3682   0.4513   0.5759   0.7873
     0.9136   1.0005   1.1110   1.2607   1.5668   1.7127   1.7928   1.9057
     1.9680   2.3022   2.4012   2.5251   2.6334

          k = 0.0549-0.1292 0.0000 ( 18975 PWs)   bands (ev):

   -79.3601 -79.3586 -79.1825 -79.1772 -79.0670 -79.0659 -41.1660 -41.1645
   -41.0092 -41.0071 -41.0010 -40.9996 -40.9741 -40.9125 -40.9067 -40.9031
   -40.7760 -40.7750 -40.7517 -40.7505 -40.7317 -40.7221 -40.6316 -40.6303
    -8.5887  -7.4037  -7.3558  -7.0299  -6.9811  -6.8914  -6.8819  -6.7830
    -6.7059  -6.6294  -6.6057  -6.5070  -6.3653  -6.3128  -6.2457  -6.2183
    -6.1812  -6.1348  -6.0988  -6.0718  -6.0463  -6.0176  -5.9978  -5.9607
    -5.9350  -5.8146  -5.7964  -5.6900  -5.6194  -5.6089  -5.5827  -5.5144
    -5.3282  -4.6640  -4.5901  -2.9027  -2.7815  -2.6428  -1.9804  -1.5731
    -1.4208  -1.2195  -1.0421  -0.8024  -0.7326  -0.6136  -0.4979  -0.2724
    -0.1137  -0.0370   0.0971   0.1707   0.2595   0.3825   0.5321   0.5767
     0.6486   0.7096   0.8589   1.0131   1.0565   1.3030   1.4314   1.5977
     1.8618   1.9324   2.0200   2.3586   2.8116

          k = 0.0549-0.0956 0.0000 ( 18966 PWs)   bands (ev):

   -79.3669 -79.3518 -79.1880 -79.1717 -79.0740 -79.0589 -41.1823 -41.1501
   -41.1360 -41.0717 -41.0147 -40.9869 -40.9234 -40.8947 -40.8814 -40.8750
   -40.8164 -40.7878 -40.7595 -40.7462 -40.6975 -40.6439 -40.6227 -40.6165
    -8.6009  -7.4489  -7.3076  -7.2445  -7.2332  -6.9853  -6.9095  -6.8775
    -6.8089  -6.8023  -6.5531  -6.5416  -6.4615  -6.4195  -6.3475  -6.3022
    -6.2660  -6.0590  -6.0478  -5.9905  -5.9334  -5.8594  -5.8409  -5.7394
    -5.7130  -5.6971  -5.6621  -5.6025  -5.5102  -5.4552  -5.3029  -5.2068
    -5.1556  -4.9556  -3.7939  -3.4518  -3.0706  -2.3615  -2.2142  -1.9215
    -1.8250  -1.5963  -1.5796  -1.3794  -1.0351  -0.8774  -0.8278  -0.5782
    -0.4633  -0.4235  -0.2303   0.0705   0.2066   0.3573   0.6955   0.7780
     0.8076   1.1082   1.2425   1.3787   1.6193   1.6905   1.7884   1.7953
     1.9588   2.1296   2.1768   2.4038   2.8623

          k = 0.0549-0.0620 0.0000 ( 18967 PWs)   bands (ev):

   -79.3724 -79.3463 -79.1935 -79.1662 -79.0794 -79.0534 -41.2324 -41.1970
   -41.1567 -41.1393 -41.0250 -40.9767 -40.9740 -40.9333 -40.8848 -40.7981
   -40.7777 -40.7615 -40.7570 -40.7438 -40.6533 -40.6522 -40.6058 -40.5246
    -8.7062  -7.9020  -7.5362  -7.4786  -7.4757  -7.3258  -7.1439  -7.1217
    -6.9554  -6.7728  -6.6853  -6.6406  -6.5624  -6.5605  -6.2634  -6.1727
    -6.1342  -6.0772  -6.0037  -5.9263  -5.8541  -5.8152  -5.7369  -5.6480
    -5.5772  -5.4830  -5.4688  -5.4106  -5.3918  -5.3155  -5.2723  -5.0633
    -4.5690  -3.9742  -3.6185  -3.2311  -2.7424  -2.5441  -2.3580  -2.1913
    -2.0590  -1.8146  -1.6113  -1.5199  -1.3874  -1.2469  -0.9555  -0.8594
    -0.7909  -0.6654  -0.6049  -0.2396   0.0615   0.2150   0.6246   0.9167
     1.2043   1.2665   1.5609   1.7653   1.8583   2.0182   2.0826   2.1911
     2.2874   2.3597   2.5862   3.0893   3.2409

          k =-0.0823 0.0426 0.0000 ( 19002 PWs)   bands (ev):

   -79.3744 -79.3443 -79.1955 -79.1642 -79.0814 -79.0513 -41.2658 -41.2139
   -41.1782 -41.1354 -41.0289 -41.0077 -40.9731 -40.9370 -40.8812 -40.8018
   -40.7626 -40.7527 -40.7418 -40.7336 -40.6567 -40.6299 -40.5982 -40.4889
    -8.7426  -8.0893  -7.6797  -7.5575  -7.5485  -7.4877  -7.1956  -7.0764
    -6.9396  -6.8246  -6.7303  -6.6339  -6.6288  -6.4685  -6.3176  -6.1401
    -6.1298  -6.0378  -5.9064  -5.8403  -5.8160  -5.7740  -5.6651  -5.6091
    -5.6023  -5.5111  -5.4098  -5.3475  -5.2951  -5.2097  -5.1486  -4.9675
    -4.3719  -4.2144  -3.4679  -2.7898  -2.7795  -2.6371  -2.4572  -2.2364
    -1.9648  -1.8254  -1.6263  -1.5846  -1.4618  -1.3370  -1.1034  -1.0890
    -1.0423  -0.8621  -0.5493  -0.3973  -0.1243  -0.0009   0.2152   0.9916
     1.2538   1.5650   1.6213   1.8931   1.9156   1.9292   2.1541   2.3377
     2.4343   2.6644   2.8795   3.1524   3.3118

          k =-0.0823 0.0762 0.0000 ( 18967 PWs)   bands (ev):

   -79.3724 -79.3463 -79.1935 -79.1662 -79.0794 -79.0534 -41.2324 -41.1970
   -41.1567 -41.1393 -41.0250 -40.9767 -40.9740 -40.9333 -40.8848 -40.7981
   -40.7777 -40.7615 -40.7570 -40.7438 -40.6533 -40.6522 -40.6058 -40.5246
    -8.7062  -7.9020  -7.5362  -7.4785  -7.4758  -7.3258  -7.1439  -7.1217
    -6.9554  -6.7728  -6.6853  -6.6406  -6.5624  -6.5605  -6.2634  -6.1727
    -6.1342  -6.0772  -6.0037  -5.9263  -5.8541  -5.8152  -5.7369  -5.6481
    -5.5772  -5.4829  -5.4688  -5.4106  -5.3918  -5.3155  -5.2723  -5.0633
    -4.5690  -3.9742  -3.6185  -3.2311  -2.7424  -2.5441  -2.3580  -2.1913
    -2.0592  -1.8146  -1.6113  -1.5200  -1.3872  -1.2469  -0.9556  -0.8592
    -0.7909  -0.6654  -0.6049  -0.2396   0.0615   0.2149   0.6247   0.9167
     1.2043   1.2665   1.5609   1.7655   1.8581   2.0181   2.0826   2.1910
     2.2875   2.3598   2.5862   3.0893   3.2409

          k =-0.0823 0.1098 0.0000 ( 18957 PWs)   bands (ev):

   -79.3669 -79.3518 -79.1880 -79.1717 -79.0740 -79.0589 -41.1822 -41.1501
   -41.1360 -41.0717 -41.0145 -40.9869 -40.9233 -40.8946 -40.8814 -40.8750
   -40.8164 -40.7876 -40.7595 -40.7462 -40.6975 -40.6439 -40.6227 -40.6165
    -8.6287  -7.4763  -7.3682  -7.2827  -7.2397  -7.0087  -6.9762  -6.9498
    -6.8214  -6.8024  -6.6413  -6.5697  -6.4872  -6.4670  -6.3665  -6.3124
    -6.2660  -6.0566  -6.0235  -5.9908  -5.9353  -5.8911  -5.8479  -5.7884
    -5.7578  -5.6629  -5.6522  -5.6147  -5.5103  -5.4861  -5.3019  -5.1774
    -5.0484  -4.8311  -3.7146  -3.3751  -2.8468  -2.5069  -2.0215  -1.8976
    -1.7088  -1.6332  -1.4084  -1.2311  -1.0074  -0.8391  -0.6887  -0.5151
    -0.3911  -0.3381  -0.1581   0.0622   0.2345   0.3775   0.6324   0.8348
     0.8635   1.0487   1.1780   1.4297   1.6096   1.7313   1.8365   1.9256
     2.0434   2.1209   2.2235   2.5282   2.8564

          k =-0.0823-0.0582 0.0000 ( 18962 PWs)   bands (ev):

   -79.3601 -79.3586 -79.1825 -79.1772 -79.0670 -79.0659 -41.1660 -41.1645
   -41.0093 -41.0071 -41.0009 -40.9997 -40.9741 -40.9125 -40.9067 -40.9031
   -40.7760 -40.7749 -40.7516 -40.7505 -40.7316 -40.7220 -40.6316 -40.6303
    -8.5875  -7.3900  -7.3744  -7.0244  -7.0204  -6.8753  -6.8612  -6.7832
    -6.7366  -6.6262  -6.6145  -6.4275  -6.3761  -6.3034  -6.2948  -6.2298
    -6.2074  -6.1143  -6.1039  -6.0741  -6.0644  -6.0061  -5.9928  -5.9527
    -5.9194  -5.7980  -5.7866  -5.6588  -5.6380  -5.5950  -5.5776  -5.4810
    -5.4636  -4.6072  -4.5270  -2.9633  -2.8162  -2.4109  -2.1915  -1.5211
    -1.3957  -1.2809  -1.2258  -0.7894  -0.7622  -0.5645  -0.5039  -0.3553
    -0.0421   0.0381   0.0566   0.1333   0.2857   0.3217   0.4016   0.4702
     0.6493   0.7391   0.9278   0.9454   1.1895   1.2928   1.7592   1.7637
     1.9041   2.0272   2.3979   2.4777   2.5179

     the Fermi energy is     1.3752 ev

!    total energy              =   -1818.09926030 Ry
     Harris-Foulkes estimate   =   -1818.09926090 Ry
     estimated scf accuracy    <       0.00000315 Ry

     The total energy is the sum of the following terms:

     one-electron contribution =  -12874.57183535 Ry
     hartree contribution      =    6473.02027508 Ry
     xc contribution           =    -570.37661090 Ry
     ewald contribution        =    5153.89450318 Ry
     electric field correction =       0.00018664 Ry
     smearing contrib. (-TS)   =      -0.06577895 Ry

     convergence has been achieved in  12 iterations
 
 BEEF-vdW xc energy contributions
           1 :   -504.054015600643     
           2 :    466.657592415798     
           3 :   -400.332683877014     
           4 :    318.881013788864     
           5 :   -236.997054557092     
           6 :    166.264007059971     
           7 :   -112.738717958146     
           8 :    76.6591332669427     
           9 :   -54.0518261704301     
          10 :    39.3436905810390     
          11 :   -27.8279890253353     
          12 :    17.0720776964059     
          13 :   -6.96486866344333     
          14 :   -1.26324862982824     
          15 :    6.34768679309320     
          16 :   -7.95412863301033     
          17 :    6.93287707021773     
          18 :   -4.88991037980634     
          19 :    3.41055462746988     
          20 :   -3.38416321268153     
          21 :    4.75281005184945     
          22 :   -6.74483797883943     
          23 :    8.39897550435251     
          24 :   -9.07557841758091     
          25 :    8.70921276428305     
          26 :   -7.72623009858705     
          27 :    6.72775336190159     
          28 :   -6.14214318156303     
          29 :    6.03259376616745     
          30 :   -6.13684128455475     
          31 :   -44.1430714544489     
          32 :   -32.6587482979107     

     Forces acting on atoms (Ry/au):


     negative rho (up, down):  7.815E-01 0.000E+00
     atom    1 type  1   force =     0.01104403   -0.00563157   -0.05710177
     atom    2 type  2   force =    -0.03363460    0.01646743    0.06877381
     atom    3 type  1   force =     0.01060875   -0.00558814   -0.05848528
     atom    4 type  2   force =    -0.03297976    0.01798132    0.06889975
     atom    5 type  1   force =    -0.00018939    0.00022155   -0.00054642
     atom    6 type  2   force =     0.01466396   -0.00462190   -0.01383895
     atom    7 type  1   force =    -0.00075044    0.00025630    0.00538071
     atom    8 type  2   force =     0.01234512   -0.00935420   -0.01400602
     atom    9 type  1   force =     0.00310729   -0.00144554    0.04066715
     atom   10 type  2   force =     0.01421438    0.00264287    0.03325304
     atom   11 type  2   force =     0.00593347   -0.01306311    0.03344293
[...]
   -40.2480 -40.2216 -40.1869 -40.1309 -40.1027 -40.0954 -39.8765 -39.8490
    -8.8556  -6.9172  -6.7532  -6.6915  -6.5115  -6.4409  -6.3884  -6.3154
    -6.2377  -6.1579  -6.0510  -5.8268  -5.7381  -5.7324  -5.6551  -5.5893
    -5.5531  -5.5014  -5.4581  -5.3989  -5.3200  -5.3051  -5.1666  -5.1527
    -5.1174  -5.0232  -4.9803  -4.9030  -4.8681  -4.8087  -4.6372  -4.5698
    -4.0573  -3.7139  -2.8632  -2.6055  -2.5216  -2.1467  -2.0429  -1.7242
    -1.5051  -1.0095  -0.9529  -0.7352  -0.5167  -0.4436  -0.0959   0.0165
     0.2581   0.3577   0.4947   0.6702   0.8925   1.0795   1.1562   1.1828
     1.3571   1.4445   1.5566   1.6816   1.8496   2.0675   2.1188   2.3814
     2.4702   3.0344   3.1483   3.2698   3.4718

          k = 0.0274-0.1150 0.0000 ( 18975 PWs)   bands (ev):

   -78.8110 -78.8102 -78.5934 -78.5820 -78.5121 -78.5120 -40.9721 -40.9642
   -40.5457 -40.5435 -40.5137 -40.4723 -40.3980 -40.3769 -40.3319 -40.2619
   -40.2367 -40.2353 -40.2257 -40.2249 -40.1187 -40.1157 -39.8682 -39.8577
    -8.7533  -6.6647  -6.4993  -6.3233  -6.2705  -6.2324  -6.2202  -6.0813
    -6.0466  -5.9502  -5.9327  -5.8389  -5.7415  -5.7120  -5.6776  -5.6306
    -5.6038  -5.5491  -5.4700  -5.4480  -5.3481  -5.2932  -5.2787  -5.2328
    -5.1525  -5.1415  -5.1035  -5.0523  -4.9767  -4.9013  -4.8046  -4.5528
    -4.5114  -3.6963  -3.3194  -2.7552  -2.6308  -2.2614  -1.8318  -1.6743
    -1.4998  -1.2365  -1.0142  -0.8283  -0.6200  -0.2757  -0.2452  -0.0906
     0.2009   0.3481   0.4124   0.5257   0.6459   0.8116   0.8848   1.0745
     1.1921   1.2911   1.4090   1.4424   1.6303   1.8030   2.0804   2.1973
     2.3690   2.7745   2.9902   3.1577   3.3495

          k = 0.0274-0.0814 0.0000 ( 18957 PWs)   bands (ev):

   -78.8182 -78.8030 -78.5975 -78.5779 -78.5196 -78.5045 -40.9854 -40.9512
   -40.6240 -40.5626 -40.5295 -40.4980 -40.3718 -40.3558 -40.3500 -40.3163
   -40.2484 -40.2216 -40.1869 -40.1310 -40.1026 -40.0953 -39.8765 -39.8489
    -8.8170  -6.7695  -6.6631  -6.5958  -6.3704  -6.3593  -6.3215  -6.2721
    -6.0959  -6.0142  -5.9462  -5.8043  -5.7393  -5.7181  -5.6163  -5.5919
    -5.5414  -5.4410  -5.4231  -5.3318  -5.2881  -5.2571  -5.1765  -5.1666
    -5.1255  -5.0214  -4.9954  -4.8952  -4.8394  -4.8093  -4.6732  -4.5875
    -4.1463  -3.9202  -3.2803  -2.8758  -2.5011  -2.1668  -2.0368  -1.7592
    -1.5844  -1.3729  -1.2023  -1.0192  -0.8464  -0.5890  -0.3977  -0.2181
    -0.0675   0.1192   0.1841   0.3738   0.5486   0.7868   0.8977   1.1905
     1.3666   1.4619   1.6572   1.7896   2.0441   2.3149   2.4592   2.5965
     2.7064   2.7682   3.0056   3.2772   3.3829

          k = 0.0274-0.0478 0.0000 ( 18945 PWs)   bands (ev):

   -78.8238 -78.7974 -78.6026 -78.5728 -78.5251 -78.4989 -40.9979 -40.9394
   -40.7192 -40.6028 -40.5567 -40.5190 -40.4483 -40.3645 -40.3385 -40.2582
   -40.2334 -40.2114 -40.1415 -40.1072 -40.0796 -39.9983 -39.8852 -39.8393
    -8.9767  -7.3633  -6.9290  -6.8253  -6.7465  -6.6366  -6.4343  -6.2798
    -6.2352  -6.2190  -6.0521  -5.8082  -5.7580  -5.6398  -5.5870  -5.5368
    -5.4582  -5.3932  -5.3232  -5.2903  -5.2468  -5.1741  -5.1427  -5.1135
    -5.0353  -4.9956  -4.8554  -4.8425  -4.8244  -4.7575  -4.6215  -4.3420
    -4.1274  -3.1658  -2.9039  -2.6956  -2.5326  -2.1511  -1.9469  -1.7995
    -1.6614  -1.4568  -1.2712  -0.9919  -0.8280  -0.6641  -0.3341  -0.2579
    -0.0239   0.0776   0.1967   0.5034   0.6141   0.8383   1.1105   1.3929
     1.5286   1.6151   1.9765   1.9970   2.2598   2.6016   2.7433   2.8844
     2.9935   3.0713   3.3456   3.4937   3.5808

          k = 0.0549-0.0284 0.0000 ( 18948 PWs)   bands (ev):

   -78.8258 -78.7953 -78.6046 -78.5708 -78.5271 -78.4969 -41.0027 -40.9350
   -40.7540 -40.6322 -40.5649 -40.5151 -40.4820 -40.3694 -40.3315 -40.2620
   -40.2081 -40.1979 -40.1450 -40.0958 -40.0519 -39.9625 -39.8884 -39.8355
    -9.0218  -7.5146  -7.0856  -6.8625  -6.7380  -6.6528  -6.3838  -6.2524
    -6.2385  -6.1382  -5.9890  -5.8523  -5.7327  -5.5731  -5.5682  -5.4909
    -5.4124  -5.3178  -5.2718  -5.1997  -5.1581  -5.1312  -5.0976  -5.0555
    -5.0272  -5.0156  -4.9797  -4.8141  -4.7697  -4.7005  -4.5263  -4.4178
    -4.0237  -3.6535  -2.9317  -2.6678  -2.2606  -2.2554  -2.0100  -1.7872
    -1.5529  -1.4932  -1.2617  -1.1818  -0.9280  -0.7490  -0.7092  -0.4467
    -0.4083  -0.1567   0.0894   0.3899   0.5273   0.7154   0.9505   1.3934
     1.5569   1.7429   1.8887   2.0034   2.0860   2.7167   2.7324   3.1060
     3.1093   3.1812   3.3282   3.4768   4.0109

          k = 0.0549 0.0052 0.0000 ( 18945 PWs)   bands (ev):

   -78.8238 -78.7974 -78.6026 -78.5728 -78.5251 -78.4989 -40.9979 -40.9394
   -40.7192 -40.6028 -40.5567 -40.5190 -40.4483 -40.3645 -40.3385 -40.2582
   -40.2334 -40.2114 -40.1415 -40.1072 -40.0796 -39.9983 -39.8852 -39.8393
    -8.9767  -7.3633  -6.9290  -6.8253  -6.7465  -6.6366  -6.4343  -6.2798
    -6.2352  -6.2191  -6.0521  -5.8082  -5.7581  -5.6398  -5.5870  -5.5367
    -5.4582  -5.3932  -5.3232  -5.2903  -5.2468  -5.1741  -5.1427  -5.1135
    -5.0352  -4.9955  -4.8554  -4.8425  -4.8244  -4.7575  -4.6215  -4.3419
    -4.1274  -3.1658  -2.9038  -2.6956  -2.5327  -2.1508  -1.9475  -1.7994
    -1.6615  -1.4566  -1.2712  -0.9917  -0.8277  -0.6644  -0.3340  -0.2580
    -0.0240   0.0776   0.1970   0.5035   0.6140   0.8381   1.1106   1.3926
     1.5284   1.6149   1.9765   1.9972   2.2603   2.6017   2.7432   2.8845
     2.9936   3.0713   3.3456   3.4934   3.5809

          k = 0.0549 0.0388 0.0000 ( 18947 PWs)   bands (ev):

   -78.8182 -78.8030 -78.5975 -78.5779 -78.5196 -78.5045 -40.9854 -40.9512
   -40.6240 -40.5622 -40.5296 -40.4978 -40.3718 -40.3557 -40.3498 -40.3163
   -40.2481 -40.2216 -40.1869 -40.1309 -40.1026 -40.0954 -39.8764 -39.8489
    -8.8425  -6.8442  -6.7390  -6.6621  -6.4737  -6.4030  -6.3758  -6.3045
    -6.1936  -6.1334  -6.0169  -5.8172  -5.7377  -5.7284  -5.6361  -5.5931
    -5.5501  -5.4841  -5.4498  -5.3659  -5.3172  -5.2930  -5.1706  -5.1493
    -5.1185  -5.0223  -4.9886  -4.9058  -4.8517  -4.8088  -4.6428  -4.5746
    -4.0259  -3.8467  -2.8990  -2.7294  -2.4510  -2.1854  -2.0402  -1.8276
    -1.5105  -1.2468  -0.9695  -0.8483  -0.6570  -0.3776  -0.2494  -0.0111
     0.1166   0.1890   0.4024   0.5563   0.6924   0.8882   1.0184   1.1739
     1.3754   1.5062   1.6812   1.7274   1.8221   2.3080   2.4031   2.5837
     2.7289   2.9551   3.1074   3.1747   3.2645

          k = 0.0549-0.1292 0.0000 ( 18975 PWs)   bands (ev):

   -78.8110 -78.8102 -78.5934 -78.5820 -78.5121 -78.5120 -40.9721 -40.9642
   -40.5457 -40.5435 -40.5137 -40.4723 -40.3980 -40.3769 -40.3319 -40.2619
   -40.2367 -40.2353 -40.2257 -40.2249 -40.1187 -40.1157 -39.8682 -39.8577
    -8.7533  -6.6647  -6.4993  -6.3233  -6.2705  -6.2324  -6.2202  -6.0813
    -6.0466  -5.9502  -5.9327  -5.8389  -5.7416  -5.7120  -5.6775  -5.6306
    -5.6038  -5.5492  -5.4700  -5.4480  -5.3481  -5.2932  -5.2787  -5.2328
    -5.1525  -5.1415  -5.1035  -5.0523  -4.9767  -4.9013  -4.8046  -4.5527
    -4.5114  -3.6964  -3.3193  -2.7551  -2.6308  -2.2614  -1.8317  -1.6744
    -1.5000  -1.2366  -1.0141  -0.8276  -0.6204  -0.2762  -0.2454  -0.0907
     0.2008   0.3480   0.4127   0.5257   0.6460   0.8117   0.8849   1.0745
     1.1920   1.2912   1.4090   1.4423   1.6302   1.8028   2.0808   2.1972
     2.3693   2.7747   2.9903   3.1574   3.3495

          k = 0.0549-0.0956 0.0000 ( 18966 PWs)   bands (ev):

   -78.8182 -78.8030 -78.5975 -78.5779 -78.5196 -78.5045 -40.9854 -40.9512
   -40.6240 -40.5628 -40.5296 -40.4980 -40.3718 -40.3558 -40.3502 -40.3162
   -40.2486 -40.2216 -40.1869 -40.1311 -40.1026 -40.0953 -39.8765 -39.8490
    -8.8046  -6.7581  -6.6212  -6.5576  -6.3529  -6.2958  -6.2869  -6.2428
    -6.0806  -5.9075  -5.8396  -5.7912  -5.7411  -5.7181  -5.6575  -5.5820
    -5.5395  -5.4378  -5.3718  -5.3054  -5.2592  -5.2391  -5.1834  -5.1764
    -5.1435  -5.0179  -4.9929  -4.8710  -4.8550  -4.8215  -4.7145  -4.5950
    -4.2552  -3.9426  -3.5284  -3.0232  -2.4064  -2.2150  -1.9243  -1.8007
    -1.6427  -1.3628  -1.2440  -1.0585  -0.9688  -0.6836  -0.5751  -0.3454
    -0.0678   0.0387   0.1640   0.2411   0.5430   0.8179   0.8365   1.1983
     1.3905   1.4263   1.6104   1.7928   2.0957   2.2473   2.3820   2.4663
     2.6739   2.7314   2.9909   3.2573   3.4533

          k = 0.0549-0.0620 0.0000 ( 18967 PWs)   bands (ev):

   -78.8238 -78.7974 -78.6026 -78.5728 -78.5251 -78.4989 -40.9980 -40.9394
   -40.7193 -40.6030 -40.5572 -40.5190 -40.4484 -40.3648 -40.3385 -40.2586
   -40.2334 -40.2115 -40.1416 -40.1072 -40.0796 -39.9983 -39.8852 -39.8393
    -8.9386  -7.2824  -6.8794  -6.7689  -6.6800  -6.5255  -6.3136  -6.2424
    -6.1447  -5.9936  -5.8910  -5.8043  -5.7376  -5.5766  -5.5417  -5.5008
    -5.4254  -5.3448  -5.2862  -5.2640  -5.1907  -5.1700  -5.1524  -5.0989
    -5.0429  -4.9886  -4.8735  -4.8512  -4.8175  -4.7564  -4.6224  -4.3497
    -4.1606  -3.8136  -3.0491  -2.6973  -2.6319  -2.3154  -1.9628  -1.9400
    -1.7058  -1.4628  -1.2931  -1.1711  -0.9732  -0.9471  -0.6874  -0.5819
    -0.3554  -0.2303  -0.1478   0.1808   0.6850   0.7073   1.0959   1.2656
     1.4289   1.5661   1.8149   1.9900   2.1741   2.5967   2.6223   2.8296
     2.9660   3.1101   3.1852   3.4480   3.8013

          k =-0.0823 0.0426 0.0000 ( 19002 PWs)   bands (ev):

   -78.8258 -78.7953 -78.6046 -78.5708 -78.5271 -78.4969 -41.0027 -40.9350
   -40.7541 -40.6323 -40.5652 -40.5152 -40.4822 -40.3695 -40.3316 -40.2622
   -40.2082 -40.1980 -40.1450 -40.0959 -40.0519 -39.9626 -39.8885 -39.8355
    -8.9965  -7.4703  -7.0635  -6.8311  -6.6914  -6.5849  -6.3094  -6.2202
    -6.2048  -5.9526  -5.8496  -5.7755  -5.7217  -5.6293  -5.5379  -5.4286
    -5.3154  -5.2733  -5.2673  -5.1813  -5.1715  -5.1256  -5.0599  -5.0531
    -5.0187  -5.0179  -4.9868  -4.8159  -4.7664  -4.6907  -4.5264  -4.5126
    -4.1535  -3.9776  -2.7411  -2.6534  -2.5680  -2.4212  -2.0589  -1.8775
    -1.5436  -1.5422  -1.2837  -1.1703  -1.0325  -0.9542  -0.8543  -0.7887
    -0.5453  -0.4019  -0.1450   0.1557   0.4820   0.7645   0.8248   1.3708
     1.5313   1.6493   1.8261   1.9544   2.1004   2.6643   2.6988   3.0021
     3.0483   3.2347   3.3235   3.4886   4.0438

          k =-0.0823 0.0762 0.0000 ( 18967 PWs)   bands (ev):

   -78.8238 -78.7974 -78.6026 -78.5728 -78.5251 -78.4989 -40.9980 -40.9394
   -40.7193 -40.6030 -40.5572 -40.5190 -40.4484 -40.3648 -40.3385 -40.2586
   -40.2334 -40.2115 -40.1416 -40.1072 -40.0796 -39.9983 -39.8852 -39.8393
    -8.9386  -7.2824  -6.8794  -6.7689  -6.6800  -6.5254  -6.3136  -6.2424
    -6.1447  -5.9936  -5.8910  -5.8042  -5.7377  -5.5766  -5.5416  -5.5009
    -5.4254  -5.3447  -5.2863  -5.2640  -5.1907  -5.1700  -5.1524  -5.0989
    -5.0428  -4.9886  -4.8735  -4.8512  -4.8175  -4.7564  -4.6224  -4.3497
    -4.1606  -3.8137  -3.0491  -2.6972  -2.6319  -2.3156  -1.9629  -1.9398
    -1.7060  -1.4629  -1.2924  -1.1712  -0.9737  -0.9468  -0.6876  -0.5819
    -0.3553  -0.2303  -0.1478   0.1808   0.6849   0.7073   1.0960   1.2653
     1.4287   1.5662   1.8151   1.9901   2.1743   2.5968   2.6222   2.8296
     2.9660   3.1103   3.1850   3.4481   3.8012

          k =-0.0823 0.1098 0.0000 ( 18957 PWs)   bands (ev):

   -78.8182 -78.8030 -78.5975 -78.5779 -78.5196 -78.5045 -40.9854 -40.9512
   -40.6240 -40.5626 -40.5295 -40.4980 -40.3718 -40.3558 -40.3500 -40.3163
   -40.2484 -40.2216 -40.1869 -40.1310 -40.1026 -40.0953 -39.8765 -39.8489
    -8.8170  -6.7695  -6.6630  -6.5958  -6.3703  -6.3593  -6.3215  -6.2721
    -6.0959  -6.0142  -5.9462  -5.8043  -5.7394  -5.7180  -5.6163  -5.5918
    -5.5414  -5.4410  -5.4231  -5.3318  -5.2881  -5.2572  -5.1766  -5.1666
    -5.1254  -5.0215  -4.9953  -4.8953  -4.8394  -4.8093  -4.6732  -4.5875
    -4.1463  -3.9201  -3.2803  -2.8757  -2.5011  -2.1666  -2.0375  -1.7587
    -1.5845  -1.3731  -1.2022  -1.0190  -0.8463  -0.5890  -0.3979  -0.2187
    -0.0675   0.1192   0.1841   0.3739   0.5484   0.7867   0.8977   1.1906
     1.3668   1.4619   1.6573   1.7895   2.0442   2.3150   2.4594   2.5966
     2.7064   2.7681   3.0058   3.2770   3.3828

          k =-0.0823-0.0582 0.0000 ( 18962 PWs)   bands (ev):

   -78.8110 -78.8102 -78.5934 -78.5820 -78.5121 -78.5120 -40.9721 -40.9642
   -40.5457 -40.5435 -40.5137 -40.4723 -40.3980 -40.3768 -40.3319 -40.2618
   -40.2367 -40.2353 -40.2257 -40.2249 -40.1187 -40.1157 -39.8681 -39.8577
    -8.7530  -6.6652  -6.5032  -6.3333  -6.2777  -6.2287  -6.2203  -6.0823
    -6.0678  -5.9530  -5.9361  -5.7697  -5.7432  -5.6975  -5.6629  -5.6503
    -5.6075  -5.5685  -5.4864  -5.4416  -5.3294  -5.2854  -5.2820  -5.2309
    -5.1521  -5.1393  -5.0852  -5.0545  -4.9852  -4.9158  -4.8565  -4.5483
    -4.5206  -3.6422  -3.2824  -2.7141  -2.5956  -2.2179  -1.9311  -1.7476
    -1.4574  -1.1928  -1.0972  -0.9642  -0.6812  -0.3532  -0.1484  -0.0462
     0.1667   0.3299   0.4757   0.5286   0.6888   0.7674   0.8731   1.0235
     1.1581   1.3058   1.3670   1.5288   1.6208   1.7274   2.2137   2.4682
     2.7630   2.8236   2.9432   3.0953   3.2718

     the Fermi energy is     1.8029 ev

!    total energy              =   -1818.25348828 Ry
     Harris-Foulkes estimate   =   -1818.25348846 Ry
     estimated scf accuracy    <       0.00000001 Ry

     The total energy is the sum of the following terms:

     one-electron contribution =  -12386.72717097 Ry
     hartree contribution      =    6232.16055815 Ry
     xc contribution           =    -570.60458694 Ry
     ewald contribution        =    4906.98056123 Ry
     electric field correction =       0.00003807 Ry
     smearing contrib. (-TS)   =      -0.06288783 Ry

     convergence has been achieved in  16 iterations
 
 BEEF-vdW xc energy contributions
           1 :   -504.247707510568     
           2 :    466.678189624803     
           3 :   -400.109407776674     
           4 :    318.483390918840     
           5 :   -236.565550145037     
           6 :    165.886210116203     
           7 :   -112.375167937206     
           8 :    76.1740208571232     
           9 :   -53.3284623313095     
          10 :    38.4058987566683     
          11 :   -26.8808084410509     
          12 :    16.4246394295956     
          13 :   -6.87238385347723     
          14 :  -0.750446423317953     
          15 :    5.43991834110739     
          16 :   -7.04212286635436     
          17 :    6.40554562218290     
          18 :   -4.94612036743956     
          19 :    3.96500997325961     
          20 :   -4.11613603429805     
          21 :    5.27212955619041     
          22 :   -6.78885276562801     
          23 :    7.95876808467938     
          24 :   -8.38897721173964     
          25 :    8.12857571572795     
          26 :   -7.53388703134578     
          27 :    6.99658812335235     
          28 :   -6.71058674794938     
          29 :    6.60085470375077     
          30 :   -6.42813642233261     
          31 :   -44.1477050704234     
          32 :   -32.6039762892850     

     Forces acting on atoms (Ry/au):


     negative rho (up, down):  7.831E-01 0.000E+00
     atom    1 type  1   force =     0.01095775   -0.00566936   -0.06153738
     atom    2 type  2   force =    -0.02116074    0.00960355    0.05028007
     atom    3 type  1   force =     0.01111859   -0.00575272   -0.06221540
     atom    4 type  2   force =    -0.02005843    0.01170721    0.05026327
     atom    5 type  1   force =    -0.02008175    0.01038417    0.04936302
     atom    6 type  2   force =     0.02334486   -0.01345404   -0.02541436
     atom    7 type  1   force =    -0.00893645    0.00463902    0.02596667
     atom    8 type  2   force =     0.02447737   -0.01123915   -0.02544757
     atom    9 type  1   force =    -0.00011859    0.00000960   -0.00011571
     atom   10 type  2   force =    -0.00026559    0.00051794    0.00005268
     atom   11 type  2   force =    -0.00072702    0.00022097   -0.00008874
     atom   12 type  1   force =     0.00165674   -0.00080339   -0.00098364
     atom   13 type  3   force =    -0.00020673   -0.00016382   -0.00012290

     Total force =     0.002323     Total SCF correction =     0.000262
     SCF correction compared to forces is large: reduce conv_thr to get better values


     entering subroutine stress ...


     negative rho (up, down):  7.831E-01 0.000E+00
          total   stress  (Ry/bohr**3)                   (kbar)     P=  -15.05
  -0.00018291   0.00003800   0.00001770        -26.91      5.59      2.60
   0.00003800  -0.00012896  -0.00000930          5.59    -18.97     -1.37
   0.00001770  -0.00000930   0.00000490          2.60     -1.37      0.72


     bfgs converged in  43 scf cycles and  42 bfgs steps
     (criteria: energy <  1.0E+00, force <  1.9E-03)

     End of BFGS Geometry Optimization

     Final energy   =   -1818.2534882813 Ry
Begin final coordinates

ATOMIC_POSITIONS (crystal)
Hg1      0.035469879   0.232265060   0.403574237    0   0   0
Re1      0.535469879   0.232265060   0.403574237    0   0   0
Hg1      0.035469879   0.732265060   0.403574237    0   0   0
Re1      0.535469879   0.732265060   0.403574237    0   0   0
Hg1      0.767734940   0.866132530   0.500000000    0   0   0
Re1      0.267734940   0.366132530   0.500000000    0   0   0
Hg1      0.767734940   0.366132530   0.500000000    0   0   0
Re1      0.267734940   0.866132530   0.500000000    0   0   0
Hg1      0.730854095  -0.115487477   0.651451442
Re1      0.136716278  -0.076302063   0.592461950
Re1      0.136718853   0.439347452   0.592468136
Hg1      0.612749746   0.443501272   0.613376204
C1       0.281012730   0.109441427   0.631497542
End final coordinates



     Writing output data file calc.save
 
     init_run     :      6.88s CPU      7.27s WALL (       1 calls)
     electrons    :   8344.17s CPU   8778.40s WALL (      43 calls)
     update_pot   :     64.31s CPU     67.30s WALL (      42 calls)
     forces       :    302.97s CPU    309.66s WALL (      43 calls)
     stress       :    904.72s CPU    915.84s WALL (      43 calls)

     Called by init_run:
     wfcinit      :      3.66s CPU      3.93s WALL (       1 calls)
     potinit      :      0.70s CPU      0.75s WALL (       1 calls)

     Called by electrons:
     c_bands      :   5686.37s CPU   5979.16s WALL (     588 calls)
     sum_band     :   1265.84s CPU   1326.24s WALL (     588 calls)
     v_of_rho     :    234.21s CPU    267.97s WALL (     631 calls)
     newd         :    702.94s CPU    716.35s WALL (     631 calls)
     mix_rho      :      9.51s CPU     10.34s WALL (     588 calls)
     vdW_energy   :    175.80s CPU    189.82s WALL (    2179 calls)
     vdW_ffts     :    236.69s CPU    271.65s WALL (    4444 calls)
     vdW_v        :    109.14s CPU    114.57s WALL (    2179 calls)

     Called by c_bands:
     init_us_2    :     58.97s CPU     59.59s WALL (   25260 calls)
     cegterg      :   5229.22s CPU   5519.98s WALL (   11760 calls)

     Called by *egterg:
     h_psi        :   2809.10s CPU   3060.31s WALL (   57264 calls)
     s_psi        :    316.35s CPU    317.01s WALL (   57264 calls)
     g_psi        :     15.63s CPU     15.77s WALL (   45484 calls)
     cdiaghg      :   1073.55s CPU   1093.94s WALL (   56404 calls)

     Called by h_psi:
     add_vuspsi   :    317.95s CPU    318.92s WALL (   57264 calls)

     General routines
     calbec       :    483.97s CPU    519.14s WALL (   70744 calls)
     fft          :    385.62s CPU    438.53s WALL (  132117 calls)
     ffts         :      1.10s CPU      1.20s WALL (    1219 calls)
     fftw         :   2183.37s CPU   2416.39s WALL ( 6712166 calls)
     interpolate  :      5.05s CPU      5.75s WALL (    1219 calls)
     davcio       :      0.00s CPU      0.06s WALL (      20 calls)
 
     Parallel routines
     fft_scatter  :   1297.50s CPU   1481.22s WALL ( 6845502 calls)
 
     PWSCF        :     2h41m CPU        2h49m WALL

 
   This run was terminated on:  18:32:14  23Jul2018            

=------------------------------------------------------------------------------=
   JOB DONE.
=------------------------------------------------------------------------------=
