LAMMPS (12 Dec 2018)
OMP_NUM_THREADS environment is not set. Defaulting to 1 thread. (src/comm.cpp:87)
  using 1 OpenMP thread(s) per MPI task
echo            screen
Switching to CHARMM coulomb energy conversion constant (src/KSPACE/pair_lj_charmmfsw_coul_long.cpp:70)
  orthogonal box = (-24.0079 -24.0079 -24.0079) to (24.0079 24.0079 24.0079)
  1 by 1 by 1 MPI processor grid
  reading atoms ...
  7200 atoms
  scanning bonds ...
  4 = max bonds/atom
  scanning angles ...
  10 = max angles/atom
  scanning dihedrals ...
  23 = max dihedrals/atom
  reading bonds ...
  7100 bonds
  reading angles ...
  13000 angles
  reading dihedrals ...
  19300 dihedrals
  4 = max # of 1-2 neighbors
  6 = max # of 1-3 neighbors
  12 = max # of 1-4 neighbors
  14 = max # of special neighbors
  orthogonal box = (-24.0079 -24.0079 -24.0079) to (24.0079 24.0079 24.0079)
  7200 atoms before read
  7200 atoms in snapshot
  0 atoms purged
  7200 atoms replaced
  0 atoms trimmed
  0 atoms added
  7200 atoms after read
PPPM initialization ...
  using 12-bit tables for long-range coulomb (src/kspace.cpp:321)
  G vector (1/distance) = 0.244516
  grid = 30 30 30
  stencil order = 5
  estimated absolute RMS force accuracy = 0.000352393
  estimated relative force accuracy = 1.0612e-06
  using double precision FFTs
  3d grid and FFT values/proc = 50653 27000
Neighbor list info ...
  update every 1 steps, delay 5 steps, check yes
  max neighbors/atom: 2000, page size: 100000
  master list distance cutoff = 14
  ghost atom cutoff = 14
  binsize = 7, bins = 7 7 7
  1 neighbor lists, perpetual/occasional/extra = 1 0 0
  (1) pair lj/charmmfsw/coul/long, perpetual
      attributes: half, newton off
      pair build: half/bin/newtoff
      stencil: half/bin/3d/newtoff
      bin: standard
PPPM initialization ...
  using 12-bit tables for long-range coulomb (src/kspace.cpp:321)
  G vector (1/distance) = 0.244516
  grid = 30 30 30
  stencil order = 5
  estimated absolute RMS force accuracy = 0.000352393
  estimated relative force accuracy = 1.0612e-06
  using double precision FFTs
  3d grid and FFT values/proc = 50653 27000
Per MPI rank memory allocation (min/avg/max) = 55.07 | 55.07 | 55.07 Mbytes
Step Time Xlo Xhi Ylo Yhi Zlo Zhi TotEng PotEng KinEng Temp Press E_bond E_angle E_dihed E_impro E_vdwl E_coul E_long Temp Volume 
       0            0     -24.0079      24.0079     -24.0079      24.0079     -24.0079      24.0079    9155.0456    3039.2731    6115.7725    284.99999    1636.6638    92.517458    652.26231    3398.4674            0   -2558.2399    10690.821    -9236.555    284.99999    110701.25 
    1000         1000     -24.0079      24.0079     -24.0079      24.0079     -24.0079      24.0079    20678.676    12006.055    8672.6205    404.15119    452.96331    2914.0391    4938.7032    3980.4659            0   -1656.8528    11059.072   -9229.3719    404.15119    110701.25 
    2000         2000     -24.0079      24.0079     -24.0079      24.0079     -24.0079      24.0079    20337.129    11884.017     8453.112    393.92192   -76.074384    2772.6921    4807.0183    3906.6143            0   -1580.6432    11191.896   -9213.5603    393.92192    110701.25 
    3000         3000     -24.0079      24.0079     -24.0079      24.0079     -24.0079      24.0079    20695.294    12135.758    8559.5365    398.88139   -428.42807    2911.2509    4864.2054    3903.9868            0    -1527.192    11213.005   -9229.4988    398.88139    110701.25 
    4000         4000     -24.0079      24.0079     -24.0079      24.0079     -24.0079      24.0079    20448.749    11919.749    8528.9999    397.45836   -1599.3821    2874.3747    4737.3152    3899.6812            0   -1554.5995    11192.814   -9229.8367    397.45836    110701.25 
    5000         5000     -24.0079      24.0079     -24.0079      24.0079     -24.0079      24.0079    20411.602     11782.64    8628.9622    402.11668   -659.43097    2826.5478    4697.9163    3861.8877            0   -1641.9411    11253.286   -9215.0566    402.11668    110701.25 
    6000         6000     -24.0079      24.0079     -24.0079      24.0079     -24.0079      24.0079    20479.261    11840.063     8639.198    402.59368    -601.8803    2862.5179    4761.0799     3869.396            0   -1591.7736    11168.847   -9230.0049    402.59368    110701.25 
    7000         7000     -24.0079      24.0079     -24.0079      24.0079     -24.0079      24.0079    20266.555    11686.607     8579.948    399.83258   -536.02393    2831.5769    4676.3627    3896.5753            0   -1657.0865    11164.869   -9225.6907    399.83258    110701.25 
    8000         8000     -24.0079      24.0079     -24.0079      24.0079     -24.0079      24.0079    20402.302    11710.837    8691.4654    405.02938   -540.86231    2839.1127     4677.355    3902.7215            0   -1682.9231     11185.46   -9210.8892    405.02938    110701.25 
    9000         9000     -24.0079      24.0079     -24.0079      24.0079     -24.0079      24.0079    20374.045    11771.814    8602.2309    400.87098   -599.02653    2882.0331    4697.8975    3894.2865            0   -1679.6602    11203.288   -9226.0305    400.87098    110701.25 
   10000        10000     -24.0079      24.0079     -24.0079      24.0079     -24.0079      24.0079    20186.122    11591.659    8594.4627    400.50898   -273.09567    2799.4338    4717.1517    3853.4985            0    -1679.703    11133.224   -9231.9461    400.50898    110701.25 
   11000        11000     -24.0079      24.0079     -24.0079      24.0079     -24.0079      24.0079    20357.723    11710.674    8647.0492    402.95955   -898.16738    2833.4536    4718.4737    3807.9551            0   -1614.0506    11184.622   -9219.7796    402.95955    110701.25 
   12000        12000     -24.0079      24.0079     -24.0079      24.0079     -24.0079      24.0079    20253.358    11661.494    8591.8633    400.38785   -550.40665    2843.4077    4717.7559    3810.0631            0   -1670.5978     11185.76   -9224.8945    400.38785    110701.25 
   13000        13000     -24.0079      24.0079     -24.0079      24.0079     -24.0079      24.0079    20231.245    11588.629    8642.6153    402.75293    737.33696     2814.011    4658.5643    3938.3912            0   -1736.7672    11138.043   -9223.6128    402.75293    110701.25 
   14000        14000     -24.0079      24.0079     -24.0079      24.0079     -24.0079      24.0079    20361.902    11639.991    8721.9104    406.44814    -262.4984    2899.7379    4644.7106    3887.3931            0   -1723.4521    11172.748   -9241.1455    406.44814    110701.25 
   15000        15000     -24.0079      24.0079     -24.0079      24.0079     -24.0079      24.0079    20115.371    11533.333    8582.0377    399.92996   -834.99799    2845.0469     4675.468     3863.554            0   -1753.9576    11128.276   -9225.0545    399.92996    110701.25 
   16000        16000     -24.0079      24.0079     -24.0079      24.0079     -24.0079      24.0079    19866.395    11292.035    8574.3602    399.57219   -1062.3716    2844.4695    4463.7923    3841.0834            0   -1753.5274    11140.705   -9244.4885    399.57219    110701.25 
   17000        17000     -24.0079      24.0079     -24.0079      24.0079     -24.0079      24.0079    20195.609    11527.376    8668.2323     403.9467   -1101.8438    2911.7154    4615.1891    3834.7287            0   -1748.8871    11151.542   -9236.9115     403.9467    110701.25 
   18000        18000     -24.0079      24.0079     -24.0079      24.0079     -24.0079      24.0079    20037.848    11513.759    8524.0896    397.22953    177.65516    2925.7752    4515.4504    3853.9186            0   -1715.2736    11159.657   -9225.7688    397.22953    110701.25 
   19000        19000     -24.0079      24.0079     -24.0079      24.0079     -24.0079      24.0079    20155.245    11693.998    8461.2466      394.301   -256.72541    2874.6416     4704.998    3860.2444            0    -1743.469    11228.055   -9230.4716      394.301    110701.25 
   20000        20000     -24.0079      24.0079     -24.0079      24.0079     -24.0079      24.0079    20196.181    11576.509    8619.6723    401.68376   -609.77387    2891.2936    4673.8148    3866.7561            0   -1778.9765    11160.314   -9236.6935    401.68376    110701.25 
   21000        21000     -24.0079      24.0079     -24.0079      24.0079     -24.0079      24.0079    19986.054    11506.301    8479.7527     395.1634    855.38294    2801.9031    4644.7531    3879.3564            0   -1744.8131    11160.882   -9235.7802     395.1634    110701.25 
   22000        22000     -24.0079      24.0079     -24.0079      24.0079     -24.0079      24.0079    20082.408    11560.338    8522.0703    397.13543     149.4718      2879.31    4657.3646    3845.1548            0   -1782.3494     11199.54   -9238.6816    397.13543    110701.25 
   23000        23000     -24.0079      24.0079     -24.0079      24.0079     -24.0079      24.0079    20081.543    11491.941    8589.6011    400.28242    214.46892    2823.4742    4662.6102    3851.8341            0   -1787.1547    11181.768   -9240.5907    400.28242    110701.25 
   24000        24000     -24.0079      24.0079     -24.0079      24.0079     -24.0079      24.0079    20112.557    11434.063    8678.4939     404.4249   -779.55046    2807.5538    4641.3933    3890.4602            0     -1816.36    11146.772   -9235.7564     404.4249    110701.25 
   25000        25000     -24.0079      24.0079     -24.0079      24.0079     -24.0079      24.0079    20019.843    11446.985    8572.8574    399.50215   -1216.6964    2870.0397    4639.7311    3800.7867            0    -1810.403      11183.4   -9236.5698    399.50215    110701.25 
   26000        26000     -24.0079      24.0079     -24.0079      24.0079     -24.0079      24.0079    20188.717    11574.744    8613.9734    401.41819   -1122.7119    2918.9332    4699.0504    3838.3912            0   -1829.7204    11184.757   -9236.6678    401.41819    110701.25 
   27000        27000     -24.0079      24.0079     -24.0079      24.0079     -24.0079      24.0079    19825.545    11376.793    8448.7521    393.71874   -122.82787    2793.6502    4704.9713    3842.2159            0   -1872.9775    11148.086   -9239.1528    393.71874    110701.25 
   28000        28000     -24.0079      24.0079     -24.0079      24.0079     -24.0079      24.0079    20028.074     11313.08    8714.9939    406.12583    345.62775    2774.4108    4595.0309    3825.5134            0   -1841.9493    11194.303   -9234.2285    406.12583    110701.25 
   29000        29000     -24.0079      24.0079     -24.0079      24.0079     -24.0079      24.0079    19997.663    11438.149    8559.5134    398.88031    -903.5253    2889.2844    4635.1523    3847.6091            0   -1847.5688    11158.034   -9244.3616    398.88031    110701.25 
   30000        30000     -24.0079      24.0079     -24.0079      24.0079     -24.0079      24.0079     19991.46    11429.866    8561.5939    398.97727   -544.73119     2868.203     4672.695    3860.7436            0    -1833.869    11105.359   -9243.2659    398.97727    110701.25 
   31000        31000     -24.0079      24.0079     -24.0079      24.0079     -24.0079      24.0079    19985.946    11475.101     8510.845    396.61232   -486.84622    2862.4527     4716.453    3896.8259            0   -1868.3447    11110.426   -9242.7118    396.61232    110701.25 
   32000        32000     -24.0079      24.0079     -24.0079      24.0079     -24.0079      24.0079    20125.526    11458.369    8667.1567    403.89658   -96.426387    2826.7677    4672.7289    3899.8843            0   -1825.2724    11129.811     -9245.55    403.89658    110701.25 
   33000        33000     -24.0079      24.0079     -24.0079      24.0079     -24.0079      24.0079    19998.866    11360.031    8638.8349    402.57676    97.174595    2874.1411    4659.1023    3860.1722            0   -1947.9889    11154.107   -9239.5034    402.57676    110701.25 
   34000        34000     -24.0079      24.0079     -24.0079      24.0079     -24.0079      24.0079    19667.023     11143.88     8523.143    397.18542    323.42298    2813.5777    4592.0322    3803.5494            0   -1969.3344    11139.512   -9235.4567    397.18542    110701.25 
   35000        35000     -24.0079      24.0079     -24.0079      24.0079     -24.0079      24.0079    19855.436    11273.067    8582.3689     399.9454    57.853115    2786.8823    4699.6398    3825.2346            0   -1931.0777     11136.67   -9244.2818     399.9454    110701.25 
   36000        36000     -24.0079      24.0079     -24.0079      24.0079     -24.0079      24.0079    19724.406    11239.213    8485.1934    395.41694   -454.88444    2838.3628    4645.1395    3804.7064            0   -1970.3953     11158.41   -9237.0104    395.41694    110701.25 
   37000        37000     -24.0079      24.0079     -24.0079      24.0079     -24.0079      24.0079    20021.199    11389.604    8631.5952    402.23938   -881.54083    2930.5598     4654.175    3845.1819            0   -1906.8694    11111.094   -9244.5375    402.23938    110701.25 
   38000        38000     -24.0079      24.0079     -24.0079      24.0079     -24.0079      24.0079    19801.435    11214.477    8586.9576    400.15923   -570.87375    2851.9111    4601.2064    3824.0481            0   -1936.3441    11121.582   -9247.9268    400.15923    110701.25 
   39000        39000     -24.0079      24.0079     -24.0079      24.0079     -24.0079      24.0079    19899.735     11326.79    8572.9445    399.50621   -1027.3262    2881.2823    4612.4064    3889.7545            0   -1919.8338    11106.866   -9243.6847    399.50621    110701.25 
   40000        40000     -24.0079      24.0079     -24.0079      24.0079     -24.0079      24.0079    19792.204    11265.493    8526.7111     397.3517    648.39316    2793.5873    4588.9124    3859.1506            0    -1836.252    11101.311   -9241.2164     397.3517    110701.25 
   41000        41000     -24.0079      24.0079     -24.0079      24.0079     -24.0079      24.0079    19824.717    11243.682    8581.0352    399.88325   -286.79181      2847.32    4601.1989     3848.228            0   -1901.5187    11088.791   -9240.3371    399.88325    110701.25 
   42000        42000     -24.0079      24.0079     -24.0079      24.0079     -24.0079      24.0079    19877.895      11210.3    8667.5947    403.91699   -7.3038374    2848.4534    4594.0894     3837.502            0   -1925.0616    11099.602   -9244.2852    403.91699    110701.25 
   43000        43000     -24.0079      24.0079     -24.0079      24.0079     -24.0079      24.0079    20014.592    11355.476    8659.1163    403.52189   -729.98482    2878.8178    4687.2346    3832.8343            0   -1904.7063    11102.175   -9240.8797    403.52189    110701.25 
   44000        44000     -24.0079      24.0079     -24.0079      24.0079     -24.0079      24.0079    20013.631    11330.512    8683.1191    404.64044   -597.38538    2889.7722    4675.7093    3838.7313            0   -1871.7833    11049.984   -9251.9024    404.64044    110701.25 
   45000        45000     -24.0079      24.0079     -24.0079      24.0079     -24.0079      24.0079    19860.015    11236.915     8623.099    401.84345   -924.62343    2884.8085    4649.4105    3834.3174            0   -1901.0509    11015.484    -9246.054    401.84345    110701.25 
   46000        46000     -24.0079      24.0079     -24.0079      24.0079     -24.0079      24.0079    19863.035    11318.451    8544.5847    398.18462   -167.85077    2899.7438    4720.7351     3799.166            0   -1909.5585    11054.637   -9246.2734    398.18462    110701.25 
   47000        47000     -24.0079      24.0079     -24.0079      24.0079     -24.0079      24.0079    19919.432      11305.2    8614.2322    401.43025    539.63093    2883.1596    4692.8797    3853.9454            0   -1936.3671    11061.524   -9249.9416    401.43025    110701.25 
   48000        48000     -24.0079      24.0079     -24.0079      24.0079     -24.0079      24.0079    19768.767    11226.045    8542.7219    398.09781    234.56528    2863.4411    4685.6441    3825.2878            0   -1997.8398    11087.925   -9238.4131    398.09781    110701.25 
   49000        49000     -24.0079      24.0079     -24.0079      24.0079     -24.0079      24.0079     19824.81    11215.917    8608.8927    401.18143   -546.43622    2864.4235    4712.8455    3779.3245            0   -1977.6656    11078.881   -9241.8921    401.18143    110701.25 
   50000        50000     -24.0079      24.0079     -24.0079      24.0079     -24.0079      24.0079    19702.037    11221.559    8480.4783    395.19721   -690.28249    2914.7701    4662.0475    3830.8613            0   -2007.9862    11061.067   -9239.2004    395.19721    110701.25 
   51000        51000     -24.0079      24.0079     -24.0079      24.0079     -24.0079      24.0079    19581.718    11181.934     8399.784    391.43679   -74.869495    2887.5799    4658.4082    3807.1135            0   -1975.3798    11055.109   -9250.8968    391.43679    110701.25 
   52000        52000     -24.0079      24.0079     -24.0079      24.0079     -24.0079      24.0079    20001.261    11301.317    8699.9443    405.42451   -1559.6684    2870.0341    4737.4289    3849.1849            0   -2020.3127    11111.656   -9246.6743    405.42451    110701.25 
   53000        53000     -24.0079      24.0079     -24.0079      24.0079     -24.0079      24.0079    19889.326    11319.963    8569.3634    399.33933   -825.52096    2900.6225    4725.6698    3839.4911            0   -1941.5645    11045.626   -9249.8818    399.33933    110701.25 
   54000        54000     -24.0079      24.0079     -24.0079      24.0079     -24.0079      24.0079    19765.844    11221.421    8544.4228    398.17708   -584.10197    2900.8653    4624.7145    3785.9704            0   -1955.3653    11114.311   -9249.0746    398.17708    110701.25 
   55000        55000     -24.0079      24.0079     -24.0079      24.0079     -24.0079      24.0079    19842.894    11287.044    8555.8508    398.70963    92.099927    2850.8166     4693.404    3864.5519            0   -1967.4636     11086.82   -9241.0853    398.70963    110701.25 
   56000        56000     -24.0079      24.0079     -24.0079      24.0079     -24.0079      24.0079     19610.73    11145.536    8465.1947    394.48498   -684.61525    2864.4227    4603.1467    3848.0768            0   -2005.8759    11076.041   -9240.2753    394.48498    110701.25 
   57000        57000     -24.0079      24.0079     -24.0079      24.0079     -24.0079      24.0079    19760.625    11163.343    8597.2817    400.64035   -580.10974    2845.7597    4643.0009    3827.3017            0   -1979.9599    11075.405   -9248.1637    400.64035    110701.25 
   58000        58000     -24.0079      24.0079     -24.0079      24.0079     -24.0079      24.0079    19759.731    11242.393    8517.3383    396.91492   -182.66063    2859.3979    4683.6973    3758.7359            0   -1906.5302    11098.057   -9250.9653    396.91492    110701.25 
   59000        59000     -24.0079      24.0079     -24.0079      24.0079     -24.0079      24.0079    19721.872    11140.617    8581.2552     399.8935   -44.996452    2809.0195    4675.4087    3767.1785            0   -1935.1598    11069.875   -9245.7051     399.8935    110701.25 
   60000        60000     -24.0079      24.0079     -24.0079      24.0079     -24.0079      24.0079    19734.414    11223.183    8511.2307     396.6303   -681.52443    2842.8152    4715.6355    3788.7481            0   -1955.5215    11081.382   -9249.8766     396.6303    110701.25 
   61000        61000     -24.0079      24.0079     -24.0079      24.0079     -24.0079      24.0079    19790.072     11253.94    8536.1319    397.79071    718.15141    2747.1188    4822.9949    3780.7789            0   -1951.5222    11100.852    -9246.283    397.79071    110701.25 
   62000        62000     -24.0079      24.0079     -24.0079      24.0079     -24.0079      24.0079    19583.031     11036.96    8546.0715    398.25391    352.91819    2783.4849    4551.9887    3804.8271            0   -1934.7335    11077.726   -9246.3335    398.25391    110701.25 
   63000        63000     -24.0079      24.0079     -24.0079      24.0079     -24.0079      24.0079    19874.752    11208.368    8666.3848     403.8606   -672.77913    2911.4087    4640.9356    3837.3919            0   -2006.7102    11077.475   -9252.1336     403.8606    110701.25 
   64000        64000     -24.0079      24.0079     -24.0079      24.0079     -24.0079      24.0079    19742.874    11235.036     8507.838     396.4722   -788.32477    2917.8742    4590.6409    3815.1411            0   -1951.4104    11101.623   -9238.8323     396.4722    110701.25 
   65000        65000     -24.0079      24.0079     -24.0079      24.0079     -24.0079      24.0079    19885.603    11398.238    8487.3652    395.51815   -405.31887    2932.0118    4761.9912    3808.5111            0     -1936.05    11073.546    -9241.772    395.51815    110701.25 
   66000        66000     -24.0079      24.0079     -24.0079      24.0079     -24.0079      24.0079    19555.669    11094.994    8460.6755    394.27439   -732.42675    2854.6305    4594.4143    3807.2932            0   -1969.1317    11058.791   -9251.0038    394.27439    110701.25 
   67000        67000     -24.0079      24.0079     -24.0079      24.0079     -24.0079      24.0079     19848.08    11141.802    8706.2787     405.7197   -654.82269    2922.5559    4612.6276    3794.8153            0   -1986.4172    11049.708    -9251.488     405.7197    110701.25 
   68000        68000     -24.0079      24.0079     -24.0079      24.0079     -24.0079      24.0079     19749.87    11092.207    8657.6638     403.4542     744.5882    2833.9128    4643.7699    3807.9591            0   -1998.2884    11044.254   -9239.4008     403.4542    110701.25 
   69000        69000     -24.0079      24.0079     -24.0079      24.0079     -24.0079      24.0079     20021.62    11353.094     8668.526    403.96039    1129.7762    2934.1115    4758.6456    3804.3813            0   -1948.8332    11045.321   -9240.5328    403.96039    110701.25 
   70000        70000     -24.0079      24.0079     -24.0079      24.0079     -24.0079      24.0079    19720.065    11110.626    8609.4385    401.20686   -359.18784    2863.0955    4640.3836     3806.118            0   -1933.4285    10980.361   -9245.9036    401.20686    110701.25 
   71000        71000     -24.0079      24.0079     -24.0079      24.0079     -24.0079      24.0079    19640.797    11013.367    8627.4302    402.04529   -277.34076    2797.5271    4687.4124    3775.1491            0   -2020.6692     11026.94   -9252.9929    402.04529    110701.25 
   72000        72000     -24.0079      24.0079     -24.0079      24.0079     -24.0079      24.0079    19752.558    11117.037    8635.5218    402.42237   -1028.3452    2890.2065    4698.6858     3811.521            0   -2049.8655    11019.886   -9253.3976    402.42237    110701.25 
   73000        73000     -24.0079      24.0079     -24.0079      24.0079     -24.0079      24.0079    19569.669    11022.177    8547.4917    398.32009    -1109.794    2882.2026    4531.0238    3894.1506            0    -2058.724    11024.473   -9250.9492    398.32009    110701.25 
   74000        74000     -24.0079      24.0079     -24.0079      24.0079     -24.0079      24.0079     19490.17    10944.763    8545.4066    398.22292   -600.92476    2793.7532    4604.4202    3850.7895            0   -2070.7484    11019.928   -9253.3795    398.22292    110701.25 
   75000        75000     -24.0079      24.0079     -24.0079      24.0079     -24.0079      24.0079    19858.651    11205.844    8652.8069    403.22786   -472.86219    2854.4927    4700.2606    3904.4369            0   -2024.5689    11022.826   -9251.6032    403.22786    110701.25 
   76000        76000     -24.0079      24.0079     -24.0079      24.0079     -24.0079      24.0079    19463.464    11063.074    8400.3897    391.46502   -280.26091     2838.422    4633.9172    3832.4688            0   -1995.7056    11005.403   -9251.4307    391.46502    110701.25 
   77000        77000     -24.0079      24.0079     -24.0079      24.0079     -24.0079      24.0079    19825.174    11228.604    8596.5702    400.60719   -409.50464    2904.2651    4621.8094    3881.9062            0     -1985.49    11053.477    -9247.363    400.60719    110701.25 
   78000        78000     -24.0079      24.0079     -24.0079      24.0079     -24.0079      24.0079    19647.066    11248.563    8398.5023    391.37706    722.71605    2842.3562    4732.6813    3892.2878            0   -2019.3498    11042.387    -9241.799    391.37706    110701.25 
   79000        79000     -24.0079      24.0079     -24.0079      24.0079     -24.0079      24.0079    19522.408    10985.694    8536.7139    397.81783    59.442494    2840.9305    4559.8523    3843.1955            0   -2024.1091    11017.294   -9251.4696    397.81783    110701.25 
   80000        80000     -24.0079      24.0079     -24.0079      24.0079     -24.0079      24.0079    19580.625    11147.877     8432.748    392.97294   -166.06534    2914.5956    4640.0752    3818.8154            0   -2053.1669    11069.795   -9242.2376    392.97294    110701.25 
   81000        81000     -24.0079      24.0079     -24.0079      24.0079     -24.0079      24.0079    19776.955    11230.516    8546.4385    398.27101    103.27541    2950.5458    4611.9337    3865.7667            0   -2027.6566    11070.639   -9240.7118    398.27101    110701.25 
   82000        82000     -24.0079      24.0079     -24.0079      24.0079     -24.0079      24.0079    19819.291    11249.199    8570.0918    399.37328    201.64717    2831.7641    4752.8123    3834.1344            0    -1969.485    11042.038   -9242.0653    399.37328    110701.25 
   83000        83000     -24.0079      24.0079     -24.0079      24.0079     -24.0079      24.0079    19591.622    11080.109    8511.5131    396.64346   -832.29013    2833.4593    4663.4383    3883.8144            0   -2091.2129    11040.672   -9250.0622    396.64346    110701.25 
   84000        84000     -24.0079      24.0079     -24.0079      24.0079     -24.0079      24.0079    19632.217    11137.447    8494.7699    395.86321     509.1395    2835.5155    4655.8091    3849.4462            0   -2042.5123    11082.292   -9243.1034    395.86321    110701.25 
   85000        85000     -24.0079      24.0079     -24.0079      24.0079     -24.0079      24.0079    19360.469    11038.593    8321.8758     387.8062   -288.78087    2855.0819    4553.2195    3833.6091            0   -2025.7468    11069.265   -9246.8352     387.8062    110701.25 
   86000        86000     -24.0079      24.0079     -24.0079      24.0079     -24.0079      24.0079    19774.775    11109.015    8665.7596    403.83147    686.68754    2787.5358    4625.2374    3878.5015            0   -2043.0987    11107.744   -9246.9045    403.83147    110701.25 
   87000        87000     -24.0079      24.0079     -24.0079      24.0079     -24.0079      24.0079    19832.119    11166.646    8665.4727     403.8181    41.194296    2834.8305    4653.5882    3829.0625            0   -2011.5266    11108.932   -9248.2407     403.8181    110701.25 
   88000        88000     -24.0079      24.0079     -24.0079      24.0079     -24.0079      24.0079    19687.998    11125.617    8562.3804    399.01392    831.97852    2810.8636    4648.0928     3845.865            0   -2008.8994    11080.127   -9250.4315    399.01392    110701.25 
   89000        89000     -24.0079      24.0079     -24.0079      24.0079     -24.0079      24.0079    19824.549    11125.432    8699.1176    405.38598    -372.3175    2833.2132    4596.9305    3872.9588            0   -1992.3194    11064.662   -9250.0131    405.38598    110701.25 
   90000        90000     -24.0079      24.0079     -24.0079      24.0079     -24.0079      24.0079    19576.151    11110.386    8465.7645    394.51154    271.08788    2845.0141    4594.1325    3833.1525            0   -2054.7538    11143.208   -9250.3675    394.51154    110701.25 
   91000        91000     -24.0079      24.0079     -24.0079      24.0079     -24.0079      24.0079    19858.117    11118.033    8740.0838    407.29504    940.63646    2785.3322    4649.7925    3838.9468            0   -1998.1724      11094.1   -9251.9658    407.29504    110701.25 
   92000        92000     -24.0079      24.0079     -24.0079      24.0079     -24.0079      24.0079    19959.914    11308.225    8651.6894    403.17579   -337.25847    2775.6934    4724.0069    3873.8159            0   -1917.8196    11101.997    -9249.469    403.17579    110701.25 
   93000        93000     -24.0079      24.0079     -24.0079      24.0079     -24.0079      24.0079     19754.04    11208.182    8545.8582    398.24397   -1916.3534    2929.0873    4575.8674    3817.1391            0   -1972.9121    11107.732   -9248.7322    398.24397    110701.25 
   94000        94000     -24.0079      24.0079     -24.0079      24.0079     -24.0079      24.0079    20168.316    11310.294    8858.0224    412.79108   -95.876987     2884.035    4676.5738    3874.5517            0    -1980.915    11097.385   -9241.3367    412.79108    110701.25 
   95000        95000     -24.0079      24.0079     -24.0079      24.0079     -24.0079      24.0079    19740.191    11177.642    8562.5492    399.02178   -674.31837    2860.7554    4603.4936    3875.1039            0    -2003.334    11078.175   -9236.5527    399.02178    110701.25 
   96000        96000     -24.0079      24.0079     -24.0079      24.0079     -24.0079      24.0079    19710.395    11087.358    8623.0371    401.84057     646.4701     2804.535    4608.3431    3870.3418            0   -2018.8136    11062.985   -9240.0329    401.84057    110701.25 
   97000        97000     -24.0079      24.0079     -24.0079      24.0079     -24.0079      24.0079    19655.743    11130.684    8525.0585    397.27469   -342.39147    2839.7404    4608.4329    3814.3212            0   -1952.9927    11063.944   -9242.7614    397.27469    110701.25 
   98000        98000     -24.0079      24.0079     -24.0079      24.0079     -24.0079      24.0079    19722.023    11096.627    8625.3963    401.95051    278.04381    2853.7853    4617.9367    3796.2487            0   -2006.3245    11076.603   -9241.6225    401.95051    110701.25 
   99000        99000     -24.0079      24.0079     -24.0079      24.0079     -24.0079      24.0079    19853.504    11246.846    8606.6575    401.07727   -1342.6146    2887.1688    4708.4107     3788.215            0   -2000.1015    11114.114   -9250.9603    401.07727    110701.25 
  100000       100000     -24.0079      24.0079     -24.0079      24.0079     -24.0079      24.0079     19945.39    11244.617    8700.7724     405.4631   -550.93994    2848.2522    4716.4287    3846.8179            0   -2041.6672    11116.895   -9242.1089     405.4631    110701.25 
Loop time of 6711.08 on 1 procs for 100000 steps with 7200 atoms

Performance: 1.287 ns/day, 18.642 hours/ns, 14.901 timesteps/s
100.0% CPU use with 1 MPI tasks x 1 OpenMP threads

MPI task timing breakdown:
Section |  min time  |  avg time  |  max time  |%varavg| %total
---------------------------------------------------------------
Pair    | 5563.6     | 5563.6     | 5563.6     |   0.0 | 82.90
Bond    | 184.54     | 184.54     | 184.54     |   0.0 |  2.75
Kspace  | 393.53     | 393.53     | 393.53     |   0.0 |  5.86
Neigh   | 553.04     | 553.04     | 553.04     |   0.0 |  8.24
Comm    | 5.2365     | 5.2365     | 5.2365     |   0.0 |  0.08
Output  | 0.32641    | 0.32641    | 0.32641    |   0.0 |  0.00
Modify  | 8.5771     | 8.5771     | 8.5771     |   0.0 |  0.13
Other   |            | 2.206      |            |       |  0.03

Nlocal:    7200 ave 7200 max 7200 min
Histogram: 1 0 0 0 0 0 0 0 0 0
Nghost:    22219 ave 22219 max 22219 min
Histogram: 1 0 0 0 0 0 0 0 0 0
Neighs:    4.19685e+06 ave 4.19685e+06 max 4.19685e+06 min
Histogram: 1 0 0 0 0 0 0 0 0 0

Total # of neighbors = 4196852
Ave neighs/atom = 582.896
Ave special neighs/atom = 9.66667
Neighbor list builds = 4389
Dangerous builds = 0
Total wall time: 1:51:51
