ITEM: TIMESTEP
100000
ITEM: NUMBER OF ATOMS
7200
ITEM: BOX BOUNDS pp pp pp
-2.4007899999999999e+01 2.4007899999999999e+01
-2.4007899999999999e+01 2.4007899999999999e+01
-2.4007899999999999e+01 2.4007899999999999e+01
ITEM: ATOMS id type x y z vx vy vz ix iy iz 
2223 1 -21.2308 -19.9122 -21.3072 0.00574796 -0.0079192 -0.0161641 1 1 1 
2221 1 -22.1587 -18.8231 -23.5126 -0.0190372 -0.00849264 0.0106886 1 1 1 
2219 4 -22.4718 -19.873 -23.1566 -0.00467727 -0.00244301 0.00665989 1 1 1 
2222 4 -21.2955 -20.4197 -22.2713 0.00515378 -0.00158782 0.00848017 1 1 1 
2224 1 -20.3468 -20.417 -22.8654 -0.0278008 0.0176361 -0.00824401 1 1 1 
2225 6 -21.5366 -21.81 -21.8957 0.0022243 0.000185468 -0.000626091 1 1 1 
2227 1 -19.7031 -22.6159 -22.1418 -0.0370242 0.00876877 -0.00400441 1 1 1 
2829 1 -17.0861 -18.3543 -18.1658 0.00655488 -0.00163525 -0.00388918 1 1 1 
2834 1 -19.5618 -16.3896 -19.3812 -0.00105018 0.00478205 -0.0178368 1 1 1 
2220 1 -22.5121 -20.4855 23.8342 0.0187845 0.00260016 -0.000399027 1 1 0 
2832 4 -18.789 -17.0523 -19.8828 0.00545273 0.00675547 0.0132223 1 1 1 
2833 1 -17.856 -16.4485 -19.7154 0.0380538 0.00363417 -0.0084827 1 1 1 
2828 4 -18.204 -18.5285 -18.0836 0.00361782 -0.00402025 -0.000607159 1 1 1 
2218 6 -23.6594 -19.8679 -22.3942 -0.00549998 -0.00344976 -0.00101809 1 1 1 
2845 6 -15.5967 -19.2213 -22.3732 0.00170521 -0.00934067 -0.00115142 1 1 1 
2831 6 -18.8864 -18.3543 -19.3422 0.00434231 0.000629816 0.00323577 1 1 1 
2848 1 -16.4326 -21.0617 -23.0156 -0.0139858 -0.00477699 0.00832478 1 1 1 
2846 4 -15.4902 -20.5228 -22.8104 -0.000985678 0.0108794 -0.00501604 1 1 1 
2842 4 -16.3435 -18.318 -23.2696 -0.00377241 -0.00417326 0.00165499 1 1 1 
2826 1 -17.6025 -20.0378 -16.7498 -0.0283685 0.00320527 -0.0118169 1 1 1 
4260 1 -21.8399 -18.2349 -19.2705 -0.00667299 -0.00707706 0.00329947 1 1 1 
2838 6 -18.5201 -18.0444 -22.1667 -0.00907813 0.005557 -0.00412487 1 1 1 
2835 4 -19.3067 -17.1127 -21.3839 0.0054527 0.000981726 0.00113015 1 1 1 
2837 1 -20.3696 -17.4315 -21.2589 0.0186504 -0.0109932 -0.00879377 1 1 1 
2825 4 -18.4534 -19.9349 -17.4038 -0.00761478 -0.00197672 -0.00168056 1 1 1 
2830 1 -18.5889 -17.7782 -17.371 -0.00318361 -0.0223492 -0.00181377 1 1 1 
2213 1 24.0417 -17.616 23.8635 0.0107733 0.00285817 0.0536212 0 1 0 
4259 1 -21.2296 -17.667 -17.7154 -0.0295632 0.0264465 0.0129607 1 1 1 
2827 1 -18.3829 -20.596 -18.3812 -0.00207007 -0.0208633 0.0127845 1 1 1 
2839 4 -17.3934 -17.4027 -22.6172 0.00358578 0.00521051 0.0159761 1 1 1 
2841 1 -16.8439 -16.685 -21.9092 -0.0400223 -0.0108818 -0.00972435 1 1 1 
2840 1 -17.6827 -16.5649 -23.3384 -0.0194834 0.00936521 0.0182181 1 1 1 
2836 1 -19.354 -16.1051 -21.8684 -0.0300735 -0.0248396 -0.0203519 1 1 1 
2824 6 -19.659 -20.1361 -16.5279 0.00475976 0.00959564 -0.00476956 1 1 1 
2822 1 -19.2939 -22.1523 -16.6285 0.0154599 0.017102 0.00239293 1 1 1 
4258 4 -22.1426 -17.7543 -18.38 0.00386679 0.00755495 -4.02802e-05 1 1 1 
4261 4 -22.593 -16.2959 -18.7149 -0.00168184 0.00846362 -0.0102444 1 1 1 
2217 1 -23.2628 -17.8618 -21.7623 -0.00973544 -0.0266065 0.0078539 1 1 1 
2215 4 23.925 -18.4996 -22.1184 -0.00327528 -0.000877837 -0.00270058 0 1 1 
4250 3 -23.3464 -22.4335 -18.5765 -0.0090107 -0.0254606 0.0125264 1 1 1 
4252 1 -22.852 -20.5117 -19.7995 -0.0112931 -0.0229724 0.030248 1 1 1 
3396 1 -13.2093 -17.7503 -22.2183 0.0178111 0.00533908 0.02171 1 1 1 
2226 4 -20.3358 -22.2992 -21.3073 0.000791845 -0.000279011 -0.000388307 1 1 1 
2228 1 -19.8554 -21.5012 -20.6435 0.0172607 0.0299243 -0.0403007 1 1 1 
2821 4 -19.5206 -21.3644 -15.8575 0.00460281 0.00068117 0.00109102 1 1 1 
2844 1 -16.6107 -18.965 23.8828 0.0187418 -0.00756119 0.00682915 1 1 0 
2847 1 -14.995 -20.6804 -23.8059 0.004684 0.00954359 -0.00420829 1 1 1 
2850 1 -15.2087 -22.399 -21.6655 0.0123381 -0.00629735 0.00933127 1 1 1 
2849 4 -14.7811 -21.389 -21.7474 -0.00275319 0.00188806 -0.00230552 1 1 1 
2865 1 -14.9804 23.3345 -17.518 -0.0202805 -0.0588757 -0.0156429 1 0 1 
3398 1 -11.7271 -16.7352 -20.2263 0.0071249 0.0263309 -0.0236271 1 1 1 
3397 4 -12.6707 -17.4369 -20.1345 -0.00971744 0.0080263 0.00152714 1 1 1 
3399 1 -12.5821 -18.5083 -20.2615 -0.0208915 0.00130493 -0.0139402 1 1 1 
2851 1 -14.9925 -20.913 -20.7414 -0.00727826 -0.0254297 0.000335676 1 1 1 
2860 4 -14.4135 22.9775 -19.447 -0.00319353 -0.00391851 -0.00361681 1 0 1 
2859 6 -14.2338 -23.62 -19.6827 -0.00191063 -0.00518992 -0.00573751 1 1 1 
3402 1 -14.9416 -18.6302 -18.9155 0.00333432 -0.0149971 -0.00502633 1 1 1 
3403 1 -13.2961 -19.4418 -18.4533 -0.00875827 -0.00427115 -0.0158664 1 1 1 
2862 1 -13.3974 22.5762 -19.3685 -0.0284519 0.0168127 -0.00445278 1 0 1 
2852 6 -13.3741 -21.3715 -21.8609 0.00449255 0.0013668 -0.000567359 1 1 1 
2858 1 -12.8629 -23.9772 -21.2784 0.020502 -0.0247532 0.00257042 1 1 1 
2856 4 -12.9954 -23.374 -20.3843 -0.00635736 -0.0050285 -0.00340402 1 1 1 
2853 4 -12.8075 -21.8522 -20.6504 0.00692162 0.00358939 -0.000674447 1 1 1 
2854 1 -11.6935 -21.6444 -20.6682 0.0449972 0.00302687 -0.0205548 1 1 1 
2855 1 -13.1237 -21.3921 -19.7403 -0.0666561 -0.0162604 0.0218727 1 1 1 
2857 1 -12.2391 -23.6793 -19.6593 0.0119292 -0.0214755 0.000289702 1 1 1 
6700 1 -7.94582 -17.9306 -23.4699 -0.00109136 0.0373831 0.00480294 1 1 1 
6699 4 -8.58686 -17.9863 -22.6173 -0.000944071 -0.00374815 0.000151154 1 1 1 
6697 7 -8.45762 -19.2247 -21.8809 0.00371581 -0.00211343 0.0020857 1 1 1 
6703 1 -8.05446 -15.9349 -22.2171 -0.0105754 -0.00889616 -0.00751144 1 1 1 
6705 6 -8.96892 -16.7189 -20.5033 0.00294955 -0.0031971 -0.00201528 1 1 1 
6702 4 -8.10062 -16.837 -21.6197 -0.00711329 -0.00338785 0.00345881 1 1 1 
6704 1 -6.99221 -17.1585 -21.3437 0.0223488 -0.0179772 -0.0216427 1 1 1 
6710 1 -8.89518 -16.9675 -17.8372 -0.0187433 -0.0217404 0.00786434 1 1 1 
1373 1 -9.4731 -19.8621 -17.4621 -0.00189783 0.0321158 0.0268701 1 1 1 
1371 4 -8.69113 -20.461 -16.9576 0.000935202 -0.000513995 0.00158853 1 1 1 
1372 1 -8.14932 -20.9915 -17.8096 -0.0104908 0.00436878 -0.00531621 1 1 1 
3400 6 -13.2123 -17.3665 -18.7748 0.00541739 -0.0067868 -0.00480903 1 1 1 
3401 4 -13.9448 -18.5395 -18.3604 -0.00728618 0.00389991 0.00834192 1 1 1 
6701 1 -9.66786 -17.8661 -22.9758 -0.014856 0.00410938 0.00697157 1 1 1 
6707 1 -7.45964 -15.6938 -19.2491 -0.0054879 0.00307221 0.0296352 1 1 1 
6698 3 -8.82423 -18.9749 -21.0525 0.0290892 0.00167451 0.0292956 1 1 1 
5820 1 -6.62211 -21.147 -20.9655 -0.000666725 -0.00198195 0.00652803 1 1 1 
3394 4 -13.5363 -17.0706 -21.3838 0.000891263 0.000759729 0.00932092 1 1 1 
4593 1 -7.97547 -23.7027 -22.4234 -0.00919185 -0.0386892 -0.00142846 1 1 1 
4594 6 -9.91812 -22.8451 -22.1526 0.00196693 0.00382237 2.10473e-05 1 1 1 
1374 4 -7.67886 -19.6128 -16.0933 -0.000966157 -0.00683687 -0.00483296 1 1 1 
1369 7 -9.30229 -21.4396 -16.014 0.00406977 0.00257387 0.000385682 1 1 1 
1377 6 -8.43727 -18.8309 -15.1442 -0.00614707 -0.004549 0.00895915 1 1 1 
1370 3 -9.52071 -21.0503 -15.1964 -0.0150256 0.0155 0.020698 1 1 1 
5045 1 -15.4129 -14.0455 -23.8247 -0.00857424 -0.00762085 -0.0098341 1 1 1 
1375 1 -7.12225 -18.7921 -16.7756 0.0312782 0.0221207 -0.00983384 1 1 1 
5818 6 -4.78292 -20.6595 -20.3754 -0.0088597 0.00403841 -0.00747505 1 1 1 
5815 4 -3.61325 -20.0984 -21.0155 0.00693505 -0.00255618 -0.00234739 1 1 1 
5813 1 -4.87944 -18.3118 -20.9988 -0.0233517 -0.0159004 0.00249483 1 1 1 
5812 4 -4.07654 -18.7682 -21.7185 0.00512051 0.0051236 -0.00151032 1 1 1 
5814 1 -4.6044 -19.1114 -22.638 0.0268795 -0.0119041 -0.0404394 1 1 1 
5816 1 -2.80618 -20.0091 -20.2269 1.84064e-05 -0.00910254 -0.0121716 1 1 1 
5817 1 -3.15766 -20.7278 -21.7419 -0.0210236 -0.00506166 -0.00926036 1 1 1 
5811 6 -2.90921 -17.9552 -21.8729 -0.00101857 0.00604964 -0.000571297 1 1 1 
5809 1 -3.91761 -16.1122 -22.0107 -0.00639319 -0.0134207 0.0262503 1 1 1 
5810 1 -3.51788 -16.7601 -20.3729 0.00800733 -0.00559478 -0.00101367 1 1 1 
5808 4 -3.12575 -16.6189 -21.3949 -0.00283815 -0.00233308 0.00314831 1 1 1 
5806 1 -2.41324 -14.6081 -20.9326 -0.000495225 0.00250523 0.00270321 1 1 1 
5805 4 -1.9982 -15.6093 -21.3205 -0.00138137 0.0044837 -0.00258407 1 1 1 
5807 1 -1.38557 -15.6182 -22.3152 0.0174246 -0.0105099 0.0210727 1 1 1 
3057 1 -4.54577 -17.8875 -16.2658 -0.000973441 -0.00915699 0.0137465 1 1 1 
4124 4 0.434582 -19.7089 23.9103 0.00694937 0.00353419 0.00446214 0 1 0 
4126 1 0.027576 -20.2978 -23.1752 -0.0171571 0.00749782 -0.0271513 0 1 1 
4543 1 -4.74193 -19.9114 23.3038 0.0107665 -0.00328182 0.0120113 1 1 0 
2957 1 -3.68768 -22.4599 -18.461 -0.00320241 -0.0259453 0.0101796 1 1 1 
2955 4 -3.74685 -22.6985 -17.3826 -0.00159075 0.00764378 -0.000923007 1 1 1 
2960 1 -4.29504 -20.5891 -17.3757 -0.0171623 -0.00907639 -0.00715702 1 1 1 
5797 6 1.08021 -18.2646 -19.5742 0.00938052 -0.00294685 -0.00692508 1 1 1 
5796 1 -1.00009 -18.6022 -19.4847 0.00753779 -0.0308212 -0.0181266 1 1 1 
4123 1 1.10836 -18.3044 -22.5346 -0.00568265 0.00936694 0.0094363 0 1 1 
2953 7 -4.49933 -23.8788 -17.2696 0.00488064 0.00986758 -5.7859e-05 1 1 1 
2958 4 -4.44337 -21.4592 -16.7593 0.00558598 0.00232278 0.0037515 1 1 1 
2959 1 -5.51207 -21.5936 -16.7605 0.0125742 -0.0359312 0.0133911 1 1 1 
2956 1 -2.7333 -22.8809 -17.056 -0.00475318 -0.00444072 0.0130151 1 1 1 
5819 4 -5.61415 -21.282 -21.3185 0.00664466 0.00201201 -0.00370689 1 1 1 
5821 1 -5.4668 -20.9013 -22.3142 0.0125511 0.000370904 -0.0184232 1 1 1 
4542 4 -4.39395 -20.9624 22.9733 -0.00444715 0.000184595 -0.00275381 1 1 0 
3917 1 -3.21223 -14.8474 23.3306 -0.0256759 0.00632135 -0.00425698 1 1 0 
5794 4 -0.0488142 -19.0273 -19.0701 0.00340247 -0.00272503 0.0148287 1 1 1 
5785 1 -2.13947 -22.7075 -20.1753 -0.00155024 0.0148102 -0.00875079 1 1 1 
5792 1 -0.73453 -21.1331 -18.6448 -0.0112775 0.015194 0.000259029 1 1 1 
5804 6 -1.21829 -16.1547 -20.2572 0.00573378 -0.00138874 0.00575671 1 1 1 
5800 1 0.530477 -16.8237 -18.3414 0.0025961 -0.033936 0.0240836 1 1 1 
5798 4 0.973817 -16.8528 -19.3196 -0.00545527 0.00811593 -0.00957889 1 1 1 
4116 1 -0.167949 -16.9193 22.2232 0.00727966 -0.0442016 0.0121783 0 1 0 
5795 1 -0.0138859 -18.9421 -17.9299 -0.00489365 0.0087329 -0.00807843 1 1 1 
4544 1 -4.24827 -21.5655 23.908 -0.0144719 0.00674748 0.00607832 1 1 0 
3056 1 -4.78342 -16.5821 -14.8926 0.0005445 0.00492548 -0.00297314 1 1 1 
3055 4 -4.14391 -16.9212 -15.7666 -0.00304988 0.00363828 -0.00393938 1 1 1 
4122 1 2.36311 -19.4297 -23.3213 0.0248166 0.0301787 -0.012418 0 1 1 
4121 4 1.48422 -18.7565 -23.5261 0.00409323 0.00237705 0.000698401 0 1 1 
4120 6 1.86631 -17.6379 23.7054 0.00279146 -0.00266769 -0.00329269 0 1 0 
5782 1 1.00096 23.1809 -19.726 0.00577894 -0.0266884 0.0197813 1 0 1 
5783 6 -0.68572 -23.6587 -19.0244 0.000224728 0.00338275 0.00682897 1 1 1 
5791 4 -0.0400631 -20.5271 -19.3611 0.00272415 -0.00742554 0.00559466 1 1 1 
5790 6 -0.593991 -20.8599 -20.6036 -0.00294059 -0.00475408 0.00838421 1 1 1 
5789 1 0.822852 -22.4057 -20.8064 -0.0214607 0.0157755 0.0249901 1 1 1 
5788 1 -0.370619 -22.2788 -22.096 0.0292846 -0.0120096 0.0199112 1 1 1 
5787 4 -0.257489 -22.1621 -21.0135 -0.0037956 0.0122624 0.00136756 1 1 1 
5784 4 -1.15134 -23.2041 -20.2981 -0.0131732 0.00245496 0.00275988 1 1 1 
4199 6 6.74301 -19.3227 -16.8491 -0.000312116 -0.000628962 0.00684107 0 1 1 
4200 4 5.85703 -19.65 -17.9089 -0.00497884 -0.000562534 0.00275792 0 1 1 
4201 1 6.28509 -19.1032 -18.7862 -0.00162119 0.0183597 0.00877706 0 1 1 
4204 1 4.8021 -21.5269 -18.0969 -0.0197933 0.00745824 -0.010677 0 1 1 
4202 1 4.79944 -19.3138 -17.7252 -0.0190139 0.00898762 -0.0182871 0 1 1 
4203 4 5.8468 -21.1985 -18.2565 -0.00921056 0.000334972 0.00474232 0 1 1 
4206 6 6.3879 -21.5136 -19.5229 -0.00491905 -0.00259345 0.00369006 0 1 1 
4207 4 6.43081 -22.9414 -19.7436 -0.00180049 -0.00232134 -0.00519646 0 1 1 
4209 1 5.63679 -23.3573 -19.1792 0.0103954 0.024823 -0.0176052 0 1 1 
4205 1 6.39307 -21.6801 -17.4245 -0.012361 -0.00699801 -0.00299923 0 1 1 
5793 1 0.971721 -20.9281 -19.307 -0.0156975 0.0428144 0.0192202 1 1 1 
1083 4 6.21108 -18.5648 -22.5356 0.00395678 0.000364742 -0.00890698 0 1 1 
1081 7 7.27766 -19.5109 -22.6936 0.0030173 0.00420756 0.00201485 0 1 1 
1088 1 5.40171 -16.6908 -22.956 -0.00910593 -0.00305351 -0.0198699 0 1 1 
1082 3 6.85216 -20.3563 -22.8264 0.000725048 0.0034816 0.0215169 0 1 1 
4198 1 6.50689 -17.2539 -16.9541 -0.0179514 0.00721153 0.00250492 0 1 1 
4196 4 6.36123 -18.1091 -16.1999 0.00312245 0.0123452 -0.00709852 0 1 1 
1085 1 6.04059 -18.3416 -21.4946 0.00275851 0.00524847 0.021707 0 1 1 
1086 4 6.34696 -17.263 -23.4236 -0.00499461 -0.0038544 -0.00581538 0 1 1 
4117 4 1.08784 -16.4099 23.8728 -0.0106639 0.000261405 -0.000783509 0 1 0 
4118 1 0.45495 -16.4175 -23.2726 0.0196915 0.0234412 0.0218479 0 1 1 
4119 1 1.82106 -15.5696 24.0628 -0.0199996 -0.00475943 0.028331 0 1 0 
4225 1 9.2312 -21.9223 -22.1283 -0.0149735 -0.00756641 -0.0141975 0 1 1 
4197 1 7.21288 -17.683 -15.633 -0.0346898 0.0100298 0.0134311 0 1 1 
3074 1 3.46511 -20.7672 -16.3581 -0.023769 0.00275012 0.0143603 1 1 1 
1084 1 5.38958 -19.1059 -23.0885 -0.00975084 0.0040813 -0.0176512 0 1 1 
6796 1 9.22413 -17.9518 -21.9221 0.0139219 0.0177602 0.0101629 0 1 1 
6797 1 9.65471 -19.6132 -21.2781 -0.0165625 -0.029665 -0.0092729 0 1 1 
6795 4 10.0045 -18.5893 -21.446 0.00817764 -0.00517002 -0.00339263 0 1 1 
6793 1 11.2013 -17.087 -20.2571 -0.018095 -0.0284723 -0.012045 0 1 1 
6798 6 11.0425 -18.7378 -22.4593 -0.00561053 3.51705e-06 0.00552701 0 1 1 
6790 1 10.7431 -17.9693 -17.6179 -0.00494718 0.00534509 -0.0286623 0 1 1 
6791 6 11.2878 -18.8879 -19.3515 -0.00362887 0.00135539 -0.0086688 0 1 1 
6792 4 10.5564 -17.9416 -20.1832 -0.00118278 -0.00267873 -0.00220887 0 1 1 
6789 1 12.3017 -17.4564 -18.0759 -0.0371341 0.0207822 0.0192496 0 1 1 
6788 4 11.6463 -18.3403 -18.0747 0.00181752 -0.0107663 0.00648209 0 1 1 
6794 1 9.61231 -17.6047 -19.6952 -0.0315899 -0.0115948 -0.0368562 0 1 1 
5656 1 13.5904 -18.9402 -21.2216 -0.0135935 -0.0226438 -0.03734 0 1 1 
5655 1 14.4411 -18.5293 -19.6472 0.0154893 0.0054948 -0.0198259 0 1 1 
5654 4 14.5717 -18.6011 -20.8135 -0.00585978 -0.000339591 -0.00214914 0 1 1 
6799 4 10.5581 -18.3795 -23.7581 0.0032834 0.00299245 0.000948682 0 1 1 
5657 4 14.625 -17.1711 -21.3036 0.00970532 -0.00310546 0.00169182 0 1 1 
6787 1 12.655 -20.2369 -18.3445 0.00240662 0.00208246 0.0202837 0 1 1 
6784 6 11.2537 -20.4928 -16.8297 0.00176961 0.0030325 -0.00332473 0 1 1 
6785 4 12.2219 -19.6772 -17.5022 0.000720735 -0.000442851 0.000507365 0 1 1 
6781 4 10.4426 -21.1651 -17.8319 0.00167127 -0.00828763 -0.0118449 0 1 1 
6782 1 9.79193 -20.2786 -18.0903 0.00357597 -0.0189406 0.000393879 0 1 1 
6783 1 10.8934 -21.4241 -18.753 -0.0198802 0.00177055 -0.0261625 0 1 1 
6780 1 9.4251 -21.9924 -16.1666 0.00619823 -0.0025386 -0.0137353 0 1 1 
6778 4 9.52258 -22.2628 -17.2785 0.00469903 -0.00146679 0.00145105 0 1 1 
438 4 15.6329 -16.6744 -17.8921 -0.00324687 -0.00727 0.00618535 0 1 1 
439 1 15.8032 -17.5956 -18.4705 0.00298897 -0.0142812 0.00627107 0 1 1 
5659 1 13.8268 -16.4724 -20.9847 -0.0273047 0.0114237 -0.00742621 0 1 1 
6779 1 8.59883 -22.2655 -17.8541 0.0172675 0.00610519 -0.0178563 0 1 1 
6801 1 10.1187 -17.298 -23.7669 -0.0230765 0.00611365 -0.000508675 0 1 1 
6800 1 9.731 -19.0281 23.9956 -0.0336307 -0.022065 -0.00574989 0 1 0 
5660 6 14.5079 -17.1185 -22.7552 0.00037176 -0.00692996 -0.00627231 0 1 1 
2510 4 17.297 22.6071 -23.2535 0.00154089 -0.00145156 0.00553722 0 0 1 
2512 1 16.7893 22.9442 -22.266 -0.0339739 -0.00189167 -0.00744319 0 0 1 
2511 1 17.7906 23.4397 -23.6245 0.00479721 -0.0430622 0.0195703 0 0 1 
4230 1 11.2346 -22.5952 -21.0517 -0.000827224 -0.0167402 0.0210349 0 1 1 
4228 4 11.6576 -23.0678 -21.955 0.00283535 0.0041265 -0.00372326 0 1 1 
4231 4 12.3793 23.6671 -21.4281 -0.00943787 0.00416757 0.001256 0 0 1 
4232 1 13.3979 23.856 -20.974 0.00265814 0.00323279 -0.0170817 0 0 1 
4255 1 -22.0492 -20.0525 -17.5673 -0.000718846 0.00834325 0.00542343 1 1 1 
5652 1 14.4185 -21.1345 -21.4322 -0.00943083 -0.0200761 0.0468269 0 1 1 
5658 1 15.6518 -16.7452 -21.0067 -0.0207985 0.0368577 0.00254751 0 1 1 
5650 4 15.3971 -20.8035 -20.999 0.0021646 0.00340554 -0.00654114 0 1 1 
5653 6 15.6647 -19.3892 -21.3423 0.00205022 -0.00378895 0.000602487 0 1 1 
5651 1 15.4372 -21.0082 -19.8917 -0.0355581 0.00360269 0.0454978 0 1 1 
5647 4 16.5573 -21.5673 -21.6303 -0.00411234 0.003124 -0.00836188 0 1 1 
5649 1 16.1897 -21.8773 -22.6686 0.0195773 0.0177491 0.010202 0 1 1 
5646 6 16.8425 -22.7675 -20.9388 0.000179785 0.00460421 -0.00183764 0 1 1 
5643 4 18.175 -22.875 -20.5437 0.00779088 -0.0122566 0.00157414 0 1 1 
5645 1 18.8097 -22.7074 -21.492 0.0470208 0.00098351 -0.0166115 0 1 1 
5648 1 17.3491 -20.9215 -21.7736 -0.00796378 0.00387323 0.0113305 0 1 1 
2212 4 23.2281 -17.8347 -23.4096 0.00923035 -0.00274161 -0.00190196 0 1 1 
2214 1 22.5546 -17.0403 -23.094 0.00193182 -0.0155612 0.0062202 0 1 1 
2216 1 23.174 -18.5988 -21.2808 -0.0401896 0.0117495 -0.00401114 0 1 1 
3112 6 21.1207 -17.2891 -17.8706 0.00393333 0.00269181 -0.00553055 0 1 1 
3121 1 17.8653 -16.9453 -20.25 0.00266717 0.0202657 0.0306626 0 1 1 
3120 4 18.4335 -17.6721 -20.9109 0.00767546 0.00786422 -0.00278759 0 1 1 
3109 4 20.5181 -18.4613 -17.4562 0.00671862 -0.00379401 0.0038609 0 1 1 
3111 1 21.2566 -19.3102 -17.3885 0.0517216 -0.0154981 0.00476943 0 1 1 
3110 1 19.9417 -18.8507 -18.3848 -0.0184495 -0.00523772 0.0251513 0 1 1 
3119 6 19.854 -17.8512 -20.6282 0.00172519 -0.000452437 0.00178462 0 1 1 
3113 4 21.5008 -17.1803 -19.2228 -0.00817986 0.00644007 0.00986212 0 1 1 
3115 1 22.0255 -18.0932 -19.4582 -0.0206046 -0.00890721 -0.0043765 0 1 1 
3116 4 20.4705 -16.6697 -20.1612 -0.00895458 -0.00910831 0.0068276 0 1 1 
5642 1 18.5942 -21.0196 -19.8006 0.00428879 -0.0123906 -0.00331652 0 1 1 
5640 4 18.8519 -22.0457 -19.4524 0.00184881 0.00513085 0.00282569 0 1 1 
4249 7 24.0053 -21.7625 -18.4812 0.00103971 -0.001346 -0.0017417 0 1 1 
4251 4 -23.5706 -20.5026 -18.9192 -0.00272157 0.00169933 -0.0129648 1 1 1 
4254 4 -23.1057 -19.8055 -17.6259 0.00207488 -0.00247056 0.0143858 1 1 1 
3114 1 22.3019 -16.4395 -19.2349 -0.0261415 0.013492 0.00207636 0 1 1 
4257 6 -23.1209 -18.375 -17.5882 -0.00300028 0.00568502 -0.00567008 1 1 1 
5644 1 18.2947 -23.8843 -20.2075 0.0170367 -0.0132046 0.00220643 0 1 1 
3122 1 17.9586 -18.6396 -20.7962 0.0132062 -0.0341564 -0.0123996 0 1 1 
2210 1 20.8056 -18.4853 -23.0484 0.0174386 -0.0097391 0.0195142 0 1 1 
3117 1 20.8957 -16.188 -20.9921 0.01723 0.00308275 0.0222055 0 1 1 
3123 4 18.1452 -17.0459 -22.3227 0.000332637 -0.0021768 0.00814376 0 1 1 
3125 1 18.7362 -17.5175 -23.1591 -0.00589557 -0.00811435 -0.00147802 0 1 1 
3124 1 17.0718 -17.084 -22.6128 -0.0263978 0.0184334 -0.0251514 0 1 1 
5638 1 19.1811 -23.4535 -16.5678 -0.0194511 -0.0147305 -0.0305392 0 1 1 
5641 1 19.9722 -22.0328 -19.5912 -0.0138187 -0.0228669 0.0345836 0 1 1 
5639 6 18.423 -22.2492 -18.1006 -0.00364074 -0.00621368 -0.000328453 0 1 1 
2508 1 17.7685 20.5673 -23.0511 0.0139343 0.0208937 -0.00436775 0 0 1 
4256 1 -23.6045 -20.2805 -16.7232 0.0197439 -0.026186 0.00251964 1 1 1 
4253 1 23.4853 -20.1339 -19.2946 0.0184796 -0.0131422 0.00243425 0 1 1 
3107 1 19.2712 -17.0519 -16.2599 -0.0193221 -0.0254191 -0.0093739 0 1 1 
3106 4 19.6354 -18.0916 -16.1978 0.000353348 -0.00472089 0.000598828 0 1 1 
3108 1 20.2381 -18.0906 -15.2424 -0.00564264 0.0217006 0.000846181 0 1 1 
3103 1 19.2639 -20.897 -16.4298 0.00364009 0.0077052 0.00896848 0 1 1 
3102 4 18.9256 -20.2271 -15.5714 -0.00820439 0.000285173 0.000402314 0 1 1 
3104 1 19.6687 -20.0861 -14.7645 0.0227244 0.0249307 0.0202567 0 1 1 
2209 1 21.438 -20.1259 -22.6238 0.00190867 -0.0203109 -0.00350612 0 1 1 
4262 1 -21.7145 -15.6885 -18.7189 -0.0179373 -0.0151904 -0.037012 1 1 1 
4264 6 -23.173 -16.1077 -19.998 -0.00140545 -0.0018494 -0.00854121 1 1 1 
4270 1 23.4745 -14.986 -21.8786 0.0225148 0.0244199 -0.00189271 0 1 1 
4268 4 23.5117 -14.3314 -21.0154 0.0104922 0.00661999 0.00283393 0 1 1 
3440 1 -20.4392 -12.1644 -20.1775 -0.00566955 -0.0055843 0.00519779 1 1 1 
3442 6 -18.4499 -12.752 -20.0861 0.0074294 0.00144314 0.000666394 1 1 1 
3441 1 -20.2037 -13.9317 -20.1331 0.0147469 0.00202992 -0.00341685 1 1 1 
3439 4 -19.8256 -12.9574 -19.791 -0.00372727 0.00429988 0.00834983 1 1 1 
4275 4 -23.3561 -10.9094 -21.0233 -0.00290876 0.0017249 -0.0022366 1 1 1 
4277 1 -22.9869 -10.4513 -20.0694 0.00344928 0.0151803 0.0412464 1 1 1 
3436 4 -19.9206 -13.0105 -18.2643 0.00227671 -0.00753414 0.0020129 1 1 1 
3437 1 -20.9841 -13.2344 -18.0302 -0.0382776 0.0259017 -0.0028735 1 1 1 
3438 1 -19.6768 -12.0569 -17.8126 -0.0115411 -0.028585 -0.0186757 1 1 1 
4278 6 -23.6242 -9.86491 -21.901 -0.00687162 -0.00411127 0.0104248 1 1 1 
3435 6 -19.1552 -14.0992 -17.668 0.00719811 -0.00333026 0.00199302 1 1 1 
3449 6 -19.4169 -13.8069 -22.8499 0.00289252 0.00477373 -0.00131411 1 1 1 
3443 4 -18.0763 -12.4892 -21.3993 -0.00618333 -0.00546369 0.00488487 1 1 1 
3444 1 -18.7688 -11.7073 -21.7683 -0.00227254 0.0167037 0.022704 1 1 1 
3447 1 -17.6338 -14.4384 -22.014 0.0198482 0.024385 -0.0165526 1 1 1 
3446 4 -18.0743 -13.5013 -22.5304 0.0112585 0.00581441 -0.00252445 1 1 1 
3445 1 -17.1027 -12.1053 -21.1957 -0.0435347 0.0221046 0.00164419 1 1 1 
3448 1 -17.4037 -13.2468 -23.361 0.0181709 0.00338034 0.0164527 1 1 1 
4279 4 -22.4609 -9.26922 -22.3911 -0.00228395 0.00374752 -0.00762051 1 1 1 
4280 1 -22.0865 -8.56913 -21.6295 0.0169247 -0.00319958 -0.000274745 1 1 1 
3450 4 -19.4597 -14.0457 23.7878 0.00267444 -0.00265605 0.00843872 1 1 0 
3455 2 -21.5247 -14.6366 23.8603 -0.018085 0.0173916 0.0131307 1 1 0 
364 1 -15.4095 -12.2235 -18.2285 0.0228877 0.00599415 0.00814813 1 1 1 
4273 1 23.4543 -12.2902 -19.7431 -0.0138672 -0.0303698 0.0277402 0 1 1 
6039 1 -22.9995 -10.7321 -15.458 -0.0208691 0.00625478 -0.0157002 1 1 1 
6038 4 -21.8343 -10.7294 -15.5251 -0.00887723 -0.00358387 0.000674245 1 1 1 
6040 1 -21.5591 -11.5759 -16.2685 0.0343287 -0.0218527 0.0220063 1 1 1 
3432 4 -19.2443 -14.0853 -16.2465 0.000932347 0.00847294 0.00370182 1 1 1 
3434 1 -19.8994 -13.2338 -15.8503 0.00948139 -0.0322458 -0.00568951 1 1 1 
3452 1 -18.9578 -15.0028 23.51 -0.00577444 0.00291149 0.0238589 1 1 0 
3395 1 -14.5419 -17.4228 -21.1014 0.011035 0.00601347 -0.0102737 1 1 1 
4265 4 -23.145 -14.7103 -20.365 -0.00106293 -0.00566218 -0.00196614 1 1 1 
4266 1 -22.9479 -14.0644 -19.4179 0.00859981 -0.00012236 -0.000640877 1 1 1 
4267 1 -22.323 -14.4397 -21.0993 0.00283223 -0.0141557 -0.00401922 1 1 1 
4272 4 23.5069 -11.9107 -20.8214 -0.0047552 -0.000968639 -0.0053074 0 1 1 
4271 6 23.3931 -13.0659 -21.731 -0.00208514 -0.00792532 -0.00230632 0 1 1 
6042 4 -22.4486 -9.0562 -17.0214 0.00368077 0.00377913 0.00875784 1 1 1 
6048 2 -22.4321 -6.96361 -16.5702 0.00387038 0.00853766 0.000357659 1 1 1 
6041 6 -21.5016 -9.4889 -16.1204 -0.00360014 -0.00216849 0.00422872 1 1 1 
4281 1 -21.7614 -10.0022 -22.6772 0.00131126 -0.0104241 -0.0136929 1 1 1 
4276 1 -22.5158 -11.5187 -21.4867 -0.00913202 0.000587956 -0.008967 1 1 1 
3385 7 -12.0311 -13.1406 -20.5473 -0.00182848 -0.00645347 0.00202272 1 1 1 
3386 3 -12.1258 -13.275 -19.5624 0.032867 0.00486304 0.0135341 1 1 1 
3392 1 -13.8802 -15.0579 -19.9685 0.0174376 0.0188966 0.0118878 1 1 1 
6706 4 -8.55959 -15.7315 -19.554 0.00190567 -0.00445256 -0.00173374 1 1 1 
6709 4 -9.33383 -16.0745 -18.2823 0.0092215 -0.00239088 0.000588454 1 1 1 
6711 1 -10.4176 -16.3647 -18.5176 0.00276042 -0.00217044 -0.00506418 1 1 1 
5042 3 -16.3167 -13.5169 22.1376 -0.00133677 0.00625117 0.0160381 1 1 0 
3390 4 -13.9343 -14.7159 -20.9826 -0.0015273 0.00469083 -0.00613699 1 1 1 
3393 6 -13.4742 -15.7353 -21.9347 0.00291624 -0.00230613 -0.00312052 1 1 1 
3388 1 -14.0811 -12.6698 -20.5007 -0.0268562 -0.0227312 -0.0250103 1 1 1 
3387 4 -13.3552 -13.2943 -21.0969 -0.00643699 -0.000659256 -0.00389638 1 1 1 
6708 1 -8.81715 -14.6876 -19.9155 -0.0283052 0.00278516 0.017557 1 1 1 
6712 6 -9.26165 -15.032 -17.26 0.00458573 0.00245834 -0.00235061 1 1 1 
3389 1 -13.4231 -13.0096 -22.1845 -0.00636831 -0.00454585 0.0234132 1 1 1 
3391 1 -15.0592 -14.6231 -21.1907 0.00386734 0.0267273 -0.00124222 1 1 1 
3038 1 -7.00554 -9.48668 -21.2365 0.00167509 0.0139544 0.0250572 1 1 1 
3036 1 -7.34622 -10.2967 -23.6265 -0.0196247 -0.0148007 -0.0384983 1 1 1 
3034 4 -6.56981 -9.53939 -23.3747 -0.00130225 -0.00432412 -0.00201327 1 1 1 
3035 1 -7.01376 -8.4787 -23.3725 0.0212591 0.00749667 0.0131688 1 1 1 
3037 4 -6.13099 -9.72358 -21.9131 0.00258105 -0.00486363 0.00721316 1 1 1 
3903 1 -9.24851 -14.9914 -23.5829 0.0196409 0.0267661 0.00898226 1 1 1 
3039 1 -5.30928 -9.02119 -21.6855 -0.0281521 -0.0229089 -0.015035 1 1 1 
3043 1 -7.01589 -11.2547 -19.8128 -0.0114164 0.00463974 -0.0252352 1 1 1 
5041 7 -15.4462 -13.0894 22.331 -0.00660751 -0.00280348 -0.000498174 1 1 0 
3911 6 -5.43598 -15.597 -23.8161 0.000374982 0.00638594 -0.00697997 1 1 1 
3906 1 -7.10142 -12.6115 -23.6898 -0.00259178 -0.00538661 0.0218893 1 1 1 
3907 1 -7.48019 -14.1577 -22.8529 -0.0147076 -0.00468883 -0.0126511 1 1 1 
3905 4 -6.98911 -13.6837 -23.6592 0.0017403 0.00268178 0.00155704 1 1 1 
5802 1 0.4053 -16.3936 -21.4135 0.00936773 0.0241062 0.00183739 1 1 1 
3909 1 -5.22033 -13.9487 -22.5167 -0.000141588 -0.00504438 0.00695461 1 1 1 
3908 4 -5.57588 -14.1891 -23.5211 -0.0112493 0.0109558 -0.00271622 1 1 1 
3910 1 -4.83934 -13.5937 23.7579 -0.00987999 -0.00448553 0.0120766 1 1 0 
3042 1 -5.33175 -10.6565 -19.6233 -0.0223455 -0.00759971 -0.0111411 1 1 1 
3033 6 -5.42169 -9.63451 23.7792 -0.000613164 -0.00489395 0.00784284 1 1 0 
3052 1 -5.67194 -15.889 -17.7819 -0.0208091 -0.00218433 -0.0158024 1 1 1 
5801 4 0.163628 -16.076 -20.3716 0.00247835 0.000495002 -0.000803333 1 1 1 
5803 1 0.413393 -14.9888 -20.2773 0.0293842 -0.00341336 -0.00188816 1 1 1 
3040 6 -5.7676 -11.0415 -21.5553 -0.00195363 -0.00683668 0.000149327 1 1 1 
3046 1 -6.46485 -13.49 -20.2747 0.00814868 -0.0292605 -0.0114307 1 1 1 
3041 4 -5.97749 -11.3768 -20.19 0.00867232 -0.00338805 -0.00551484 1 1 1 
3045 1 -4.70993 -13.0591 -20.4406 0.0147315 0.0179454 0.0467814 1 1 1 
3044 4 -5.68576 -12.8617 -19.8884 -0.000502919 -0.000517985 0.0113353 1 1 1 
3047 6 -5.47116 -13.0213 -18.4023 0.00289272 -0.00302609 -0.000770737 1 1 1 
3050 1 -4.15756 -14.4327 -18.9918 -0.0165406 0.00737457 0.00539996 1 1 1 
3048 4 -4.55736 -13.9912 -18.0567 0.00115869 -0.00353543 0.00120626 1 1 1 
1469 1 -3.24942 -10.5898 -23.1429 0.03173 0.0159832 0.0120523 1 0 1 
1468 1 -3.88366 -12.2726 -22.8467 0.00666877 -0.00640205 0.00981405 1 0 1 
1470 6 -1.93533 -11.9134 -21.9347 0.000567217 -0.00198999 0.00277215 1 0 1 
1467 4 -2.93021 -11.6422 -22.9418 -0.00296708 0.00973505 -0.00811249 1 0 1 
1473 1 -1.43942 -11.9289 -19.9349 0.0128039 -0.0022319 0.0299186 1 0 1 
1471 4 -2.16653 -11.4231 -20.634 0.00287689 -0.00226449 0.00805384 1 0 1 
1472 1 -3.1532 -11.7213 -20.2427 -0.0179825 0.00790157 -0.000562529 1 0 1 
3051 4 -5.03293 -15.1728 -17.0933 -0.00752347 -0.00487369 0.00152928 1 1 1 
3049 1 -3.6714 -13.4266 -17.5978 -0.0117655 0.00351106 0.0427024 1 1 1 
1474 4 -1.84817 -9.94418 -20.2808 -0.00237855 -0.0023791 0.000896645 1 0 1 
1477 6 -0.961827 -9.85533 -19.2227 -0.00133003 -0.00324412 -0.00154588 1 0 1 
1476 1 -1.27795 -9.5191 -21.208 -0.0337071 0.00399179 -0.0101551 1 0 1 
5908 1 -3.12573 -11.116 -16.9369 -0.00740956 0.0525958 0.0149427 1 0 1 
1475 1 -2.70414 -9.22746 -20.0604 0.015851 -0.0140392 0.00362109 1 0 1 
5907 4 -3.17524 -10.1308 -16.5546 0.00128388 -0.00152312 0.00303568 1 0 1 
5905 7 -4.51498 -9.67783 -16.5911 0.00567526 0.00435194 0.00757191 1 0 1 
5906 3 -4.42593 -8.73955 -16.3353 -0.000749988 -0.0319505 0.00225356 1 0 1 
5909 1 -2.57532 -9.50224 -17.3171 -0.0189491 0.0045511 -0.0100082 1 0 1 
3054 6 -3.89828 -15.8491 -16.5539 0.0057543 0.00404435 -0.00335 1 1 1 
2991 1 -2.37923 -13.4066 -15.9995 -0.00514556 0.014129 0.00760656 1 1 1 
1466 1 -1.50588 -12.9458 23.8721 -0.0135883 0.00423973 -0.0162067 1 0 0 
2992 1 -1.20187 -14.6503 -16.2711 -0.0102356 -0.0141779 0.00849823 1 1 1 
2990 4 -1.33357 -13.6039 -15.8747 -0.000873783 0.00425995 0.00109219 1 1 1 
3904 6 -7.70749 -14.2718 23.2821 -0.00292127 0.0119605 -0.00335399 1 1 0 
5799 1 2.03422 -16.3843 -19.355 0.00167344 0.0132115 -0.0257793 1 1 1 
3009 1 0.774274 -11.7769 -21.4218 0.00330058 -0.0164937 0.0198661 1 1 1 
3005 1 2.5075 -10.99 -19.4171 0.0372005 -0.000424606 -0.0268746 1 1 1 
2995 1 -0.44691 -12.5611 -17.5944 0.0513988 0.0131561 -0.0180548 1 1 1 
3008 1 2.01339 -10.47 -21.7404 0.00848293 0.0271224 0.00883164 1 1 1 
2993 4 -0.354439 -12.6347 -16.529 -0.00192354 0.00834676 0.00156232 1 1 1 
3007 4 1.82999 -11.5546 -21.4851 0.00374217 -0.0111882 -0.00103723 1 1 1 
2994 1 -0.43359 -11.6041 -15.9955 -0.0065535 -0.0205913 0.020075 1 1 1 
3003 6 1.84434 -12.9511 -19.5019 -0.00393013 -0.00610347 0.00311602 1 1 1 
3004 4 2.49591 -11.8201 -20.1342 0.0040005 -0.000304146 0.00251904 1 1 1 
3006 1 3.62757 -11.9025 -20.345 0.00773933 0.0331291 0.00329113 1 1 1 
2998 1 1.13616 -11.4462 -17.7891 0.0192862 -0.0179069 0.0298417 1 1 1 
3010 6 2.46049 -12.2687 -22.5597 0.00628341 3.62721e-05 -0.00282543 1 1 1 
3000 4 2.41597 -13.134 -18.2432 0.00819472 -0.00164428 0.00738607 1 1 1 
3002 1 3.52336 -13.1042 -18.4163 -0.00196086 0.0520037 -0.00762743 1 1 1 
2999 1 2.70569 -11.7008 -16.7285 -0.0328658 0.00764365 -0.0163219 1 1 1 
3001 1 2.16185 -14.2155 -17.9434 -0.0130731 -0.00650322 -0.0147311 1 1 1 
2997 4 1.79937 -12.1347 -17.2185 -0.00523497 0.00170944 -0.00901758 1 1 1 
886 1 4.09264 -10.362 -22.3479 -0.0236175 0.0165268 -0.0222316 0 1 1 
884 4 5.08376 -9.97468 -22.3483 0.000907232 0.000404958 -0.00246913 0 1 1 
889 1 4.71298 -12.1259 -23.7162 -0.0257297 -0.0035848 -0.0294152 0 1 1 
888 4 5.71097 -11.6491 -23.6627 -0.00126438 0.000366079 -0.000736126 0 1 1 
890 1 6.15868 -12.1864 -22.6685 0.0142496 -7.05968e-05 -0.00844683 0 1 1 
885 1 5.0082 -8.82216 -22.3539 0.0149791 0.00552267 0.00251281 0 1 1 
881 4 5.86046 -10.166 -21.0187 0.00108415 -0.00233173 -0.00526229 0 1 1 
880 6 6.15982 -11.3951 -20.4906 0.00191562 -0.00346495 -0.00463577 0 1 1 
876 1 5.80921 -12.8772 -18.1309 0.0219211 -0.00569093 -0.0263099 0 1 1 