<?xml version="1.0" encoding="ISO-8859-1"?>
<modeling>
 <generator>
  <i name="program" type="string">vasp </i>
  <i name="version" type="string">5.4.4.18Apr17-6-g9f103f2a35  </i>
  <i name="subversion" type="string">(build Oct 11 2019 00:52:55) complex            parallel </i>
  <i name="platform" type="string">LinuxGNU </i>
  <i name="date" type="string">2020 07 22 </i>
  <i name="time" type="string">22:16:59 </i>
 </generator>
 <incar>
  <i type="int" name="ISTART">     0</i>
  <i type="string" name="PREC">med</i>
  <i type="string" name="ALGO"> FAST</i>
  <i type="int" name="NSIM">     4</i>
  <i type="int" name="ISPIN">     2</i>
  <i type="int" name="ICHARG">     1</i>
  <i type="int" name="IBRION">     2</i>
  <i type="int" name="NSW">   100</i>
  <i type="int" name="ISIF">     3</i>
  <v name="MAGMOM">      0.00000000      0.00000000      0.00000000      0.00000000      0.00000000      0.00000000      0.00000000      0.00000000      5.00000000      5.00000000      5.00000000      5.00000000      5.00000000      5.00000000      5.00000000      5.00000000      7.00000000      7.00000000</v>
  <i type="logical" name="LPLANE"> T  </i>
  <i type="int" name="ISMEAR">     0</i>
  <i name="SIGMA">      0.20000000</i>
  <i type="logical" name="LSCALU"> F  </i>
  <v type="int" name="KPOINT_BSE">    -1     0     0     0</v>
 </incar>
 <structure name="primitive_cell" >
  <crystal>
   <varray name="basis" >
    <v>       5.07435400       0.00000000       0.00000000 </v>
    <v>       0.00000000       5.07435400       0.00000000 </v>
    <v>       0.00000000       0.00000000       7.04355700 </v>
   </varray>
   <i name="volume">    181.36503180 </i>
   <varray name="rec_basis" >
    <v>       0.19706942       0.00000000       0.00000000 </v>
    <v>       0.00000000       0.19706942       0.00000000 </v>
    <v>       0.00000000       0.00000000       0.14197372 </v>
   </varray>
  </crystal>
  <varray name="positions" >
   <v>      -0.50000000       0.17442400       0.15819000 </v>
   <v>      -0.50000000      -0.17442400       0.15819000 </v>
   <v>       0.25862100      -0.50000000       0.13058500 </v>
   <v>      -0.25862100      -0.50000000       0.13058500 </v>
   <v>      -0.50000000       0.25862100      -0.13058500 </v>
   <v>       0.24137900       0.00000000       0.36941500 </v>
   <v>      -0.24137900       0.00000000       0.36941500 </v>
   <v>       0.00000000       0.00000000       0.00000000 </v>
   <v>      -0.50000000      -0.50000000      -0.50000000 </v>
   <v>       0.00000000       0.32557600       0.34181000 </v>
   <v>      -0.50000000      -0.25862100      -0.13058500 </v>
   <v>       0.17442400      -0.50000000      -0.15819000 </v>
   <v>      -0.17442400      -0.50000000      -0.15819000 </v>
   <v>       0.32557600       0.00000000      -0.34181000 </v>
   <v>      -0.32557600       0.00000000      -0.34181000 </v>
   <v>       0.00000000      -0.32557600       0.34181000 </v>
   <v>       0.00000000       0.24137900      -0.36941500 </v>
   <v>       0.00000000      -0.24137900      -0.36941500 </v>
  </varray>
 </structure>
 <varray name="primitive_index" >
  <v type="int" >        1 </v>
  <v type="int" >        2 </v>
  <v type="int" >        9 </v>
  <v type="int" >       10 </v>
  <v type="int" >       15 </v>
  <v type="int" >       11 </v>
  <v type="int" >       12 </v>
  <v type="int" >       17 </v>
  <v type="int" >       18 </v>
  <v type="int" >        3 </v>
  <v type="int" >       16 </v>
  <v type="int" >        7 </v>
  <v type="int" >        8 </v>
  <v type="int" >        5 </v>
  <v type="int" >        6 </v>
  <v type="int" >        4 </v>
  <v type="int" >       13 </v>
  <v type="int" >       14 </v>
 </varray>
 <kpoints>
  <generation param="Gamma">
   <v type="int" name="divisions">       8        8        6 </v>
   <v name="usershift">      0.00000000       0.00000000       0.00000000 </v>
   <v name="genvec1">      0.12500000       0.00000000       0.00000000 </v>
   <v name="genvec2">      0.00000000       0.12500000       0.00000000 </v>
   <v name="genvec3">      0.00000000       0.00000000       0.16666667 </v>
   <v name="shift">      0.00000000       0.00000000       0.00000000 </v>
  </generation>
  <varray name="kpointlist" >
   <v>       0.00000000       0.00000000       0.00000000 </v>
   <v>       0.12500000       0.00000000       0.00000000 </v>
   <v>       0.25000000       0.00000000       0.00000000 </v>
   <v>       0.37500000       0.00000000       0.00000000 </v>
   <v>       0.50000000       0.00000000       0.00000000 </v>
   <v>       0.12500000       0.12500000       0.00000000 </v>
   <v>       0.25000000       0.12500000       0.00000000 </v>
   <v>       0.37500000       0.12500000       0.00000000 </v>
   <v>       0.50000000       0.12500000       0.00000000 </v>
   <v>       0.25000000       0.25000000       0.00000000 </v>
   <v>       0.37500000       0.25000000       0.00000000 </v>
   <v>       0.50000000       0.25000000       0.00000000 </v>
   <v>       0.37500000       0.37500000       0.00000000 </v>
   <v>       0.50000000       0.37500000       0.00000000 </v>
   <v>       0.50000000       0.50000000       0.00000000 </v>
   <v>       0.00000000       0.00000000       0.16666667 </v>
   <v>       0.12500000       0.00000000       0.16666667 </v>
   <v>       0.25000000       0.00000000       0.16666667 </v>
   <v>       0.37500000       0.00000000       0.16666667 </v>
   <v>       0.50000000       0.00000000       0.16666667 </v>
   <v>       0.12500000       0.12500000       0.16666667 </v>
   <v>       0.25000000       0.12500000       0.16666667 </v>
   <v>       0.37500000       0.12500000       0.16666667 </v>
   <v>       0.50000000       0.12500000       0.16666667 </v>
   <v>       0.25000000       0.25000000       0.16666667 </v>
   <v>       0.37500000       0.25000000       0.16666667 </v>
   <v>       0.50000000       0.25000000       0.16666667 </v>
   <v>       0.37500000       0.37500000       0.16666667 </v>
   <v>       0.50000000       0.37500000       0.16666667 </v>
   <v>       0.50000000       0.50000000       0.16666667 </v>
   <v>       0.00000000       0.00000000       0.33333333 </v>
   <v>       0.12500000       0.00000000       0.33333333 </v>
   <v>       0.25000000       0.00000000       0.33333333 </v>
   <v>       0.37500000       0.00000000       0.33333333 </v>
   <v>       0.50000000       0.00000000       0.33333333 </v>
   <v>       0.12500000       0.12500000       0.33333333 </v>
   <v>       0.25000000       0.12500000       0.33333333 </v>
   <v>       0.37500000       0.12500000       0.33333333 </v>
   <v>       0.50000000       0.12500000       0.33333333 </v>
   <v>       0.25000000       0.25000000       0.33333333 </v>
   <v>       0.37500000       0.25000000       0.33333333 </v>
   <v>       0.50000000       0.25000000       0.33333333 </v>
   <v>       0.37500000       0.37500000       0.33333333 </v>
   <v>       0.50000000       0.37500000       0.33333333 </v>
   <v>       0.50000000       0.50000000       0.33333333 </v>
   <v>       0.00000000       0.00000000       0.50000000 </v>
   <v>       0.12500000       0.00000000       0.50000000 </v>
   <v>       0.25000000       0.00000000       0.50000000 </v>
   <v>       0.37500000       0.00000000       0.50000000 </v>
   <v>       0.50000000       0.00000000       0.50000000 </v>
   <v>       0.12500000       0.12500000       0.50000000 </v>
   <v>       0.25000000       0.12500000       0.50000000 </v>
   <v>       0.37500000       0.12500000       0.50000000 </v>
   <v>       0.50000000       0.12500000       0.50000000 </v>
   <v>       0.25000000       0.25000000       0.50000000 </v>
   <v>       0.37500000       0.25000000       0.50000000 </v>
   <v>       0.50000000       0.25000000       0.50000000 </v>
   <v>       0.37500000       0.37500000       0.50000000 </v>
   <v>       0.50000000       0.37500000       0.50000000 </v>
   <v>       0.50000000       0.50000000       0.50000000 </v>
  </varray>
  <varray name="weights" >
   <v>       0.00260417 </v>
   <v>       0.01041667 </v>
   <v>       0.01041667 </v>
   <v>       0.01041667 </v>
   <v>       0.00520833 </v>
   <v>       0.01041667 </v>
   <v>       0.02083333 </v>
   <v>       0.02083333 </v>
   <v>       0.01041667 </v>
   <v>       0.01041667 </v>
   <v>       0.02083333 </v>
   <v>       0.01041667 </v>
   <v>       0.01041667 </v>
   <v>       0.01041667 </v>
   <v>       0.00260417 </v>
   <v>       0.00520833 </v>
   <v>       0.02083333 </v>
   <v>       0.02083333 </v>
   <v>       0.02083333 </v>
   <v>       0.01041667 </v>
   <v>       0.02083333 </v>
   <v>       0.04166667 </v>
   <v>       0.04166667 </v>
   <v>       0.02083333 </v>
   <v>       0.02083333 </v>
   <v>       0.04166667 </v>
   <v>       0.02083333 </v>
   <v>       0.02083333 </v>
   <v>       0.02083333 </v>
   <v>       0.00520833 </v>
   <v>       0.00520833 </v>
   <v>       0.02083333 </v>
   <v>       0.02083333 </v>
   <v>       0.02083333 </v>
   <v>       0.01041667 </v>
   <v>       0.02083333 </v>
   <v>       0.04166667 </v>
   <v>       0.04166667 </v>
   <v>       0.02083333 </v>
   <v>       0.02083333 </v>
   <v>       0.04166667 </v>
   <v>       0.02083333 </v>
   <v>       0.02083333 </v>
   <v>       0.02083333 </v>
   <v>       0.00520833 </v>
   <v>       0.00260417 </v>
   <v>       0.01041667 </v>
   <v>       0.01041667 </v>
   <v>       0.01041667 </v>
   <v>       0.00520833 </v>
   <v>       0.01041667 </v>
   <v>       0.02083333 </v>
   <v>       0.02083333 </v>
   <v>       0.01041667 </v>
   <v>       0.01041667 </v>
   <v>       0.02083333 </v>
   <v>       0.01041667 </v>
   <v>       0.01041667 </v>
   <v>       0.01041667 </v>
   <v>       0.00260417 </v>
  </varray>
 </kpoints>
 <parameters>
  <separator name="general" >
   <i type="string" name="SYSTEM">unknown system</i>
   <i type="logical" name="LCOMPAT"> F  </i>
  </separator>
  <separator name="electronic" >
   <i type="string" name="PREC">med</i>
   <i name="ENMAX">    318.61400000</i>
   <i name="ENAUG">    535.51400000</i>
   <i name="EDIFF">      0.00010000</i>
   <i type="int" name="IALGO">    68</i>
   <i type="int" name="IWAVPR">    11</i>
   <i type="int" name="NBANDS">    94</i>
   <i name="NELECT">    110.00000000</i>
   <i type="int" name="TURBO">     0</i>
   <i type="int" name="IRESTART">     0</i>
   <i type="int" name="NREBOOT">     0</i>
   <i type="int" name="NMIN">     0</i>
   <i name="EREF">      0.00000000</i>
   <separator name="electronic smearing" >
    <i type="int" name="ISMEAR">     0</i>
    <i name="SIGMA">      0.20000000</i>
    <i name="KSPACING">      0.50000000</i>
    <i type="logical" name="KGAMMA"> T  </i>
   </separator>
   <separator name="electronic projectors" >
    <i type="logical" name="LREAL"> F  </i>
    <v name="ROPT">      0.00000000      0.00000000      0.00000000</v>
    <i type="int" name="LMAXPAW">  -100</i>
    <i type="int" name="LMAXMIX">     2</i>
    <i type="logical" name="NLSPLINE"> F  </i>
   </separator>
   <separator name="electronic startup" >
    <i type="int" name="ISTART">     0</i>
    <i type="int" name="ICHARG">     1</i>
    <i type="int" name="INIWAV">     1</i>
   </separator>
   <separator name="electronic spin" >
    <i type="int" name="ISPIN">     2</i>
    <i type="logical" name="LNONCOLLINEAR"> F  </i>
    <v name="MAGMOM">      0.00000000      0.00000000      0.00000000      0.00000000      0.00000000      0.00000000      0.00000000      0.00000000      5.00000000      5.00000000      5.00000000      5.00000000      5.00000000      5.00000000      5.00000000      5.00000000      7.00000000      7.00000000</v>
    <i name="NUPDOWN">     -1.00000000</i>
    <i type="logical" name="LSORBIT"> F  </i>
    <v name="SAXIS">      0.00000000      0.00000000      1.00000000</v>
    <i type="logical" name="LSPIRAL"> F  </i>
    <v name="QSPIRAL">      0.00000000      0.00000000      0.00000000</v>
    <i type="logical" name="LZEROZ"> F  </i>
   </separator>
   <separator name="electronic exchange-correlation" >
    <i type="logical" name="LASPH"> F  </i>
    <i type="logical" name="LMETAGGA"> F  </i>
   </separator>
   <separator name="electronic convergence" >
    <i type="int" name="NELM">    60</i>
    <i type="int" name="NELMDL">    -5</i>
    <i type="int" name="NELMIN">     2</i>
    <i name="ENINI">    318.61400000</i>
    <separator name="electronic convergence detail" >
     <i type="logical" name="LDIAG"> T  </i>
     <i type="logical" name="LSUBROT"> F  </i>
     <i name="WEIMIN">      0.00100000</i>
     <i name="EBREAK">      0.00000027</i>
     <i name="DEPER">      0.30000000</i>
     <i type="int" name="NRMM">     4</i>
     <i name="TIME">      0.40000000</i>
    </separator>
   </separator>
   <separator name="electronic mixer" >
    <i name="AMIX">      0.40000000</i>
    <i name="BMIX">      1.00000000</i>
    <i name="AMIN">      0.10000000</i>
    <i name="AMIX_MAG">      1.60000000</i>
    <i name="BMIX_MAG">      1.00000000</i>
    <separator name="electronic mixer details" >
     <i type="int" name="IMIX">     4</i>
     <i type="logical" name="MIXFIRST"> F  </i>
     <i type="int" name="MAXMIX">   -45</i>
     <i name="WC">    100.00000000</i>
     <i type="int" name="INIMIX">     1</i>
     <i type="int" name="MIXPRE">     1</i>
     <i type="int" name="MREMOVE">     5</i>
    </separator>
   </separator>
   <separator name="electronic dipolcorrection" >
    <i type="logical" name="LDIPOL"> F  </i>
    <i type="logical" name="LMONO"> F  </i>
    <i type="int" name="IDIPOL">     0</i>
    <i name="EPSILON">      1.00000000</i>
    <v name="DIPOL">   -100.00000000   -100.00000000   -100.00000000</v>
    <i name="EFIELD">      0.00000000</i>
   </separator>
  </separator>
  <separator name="grids" >
   <i type="int" name="NGX">    24</i>
   <i type="int" name="NGY">    24</i>
   <i type="int" name="NGZ">    32</i>
   <i type="int" name="NGXF">    40</i>
   <i type="int" name="NGYF">    40</i>
   <i type="int" name="NGZF">    54</i>
   <i type="logical" name="ADDGRID"> F  </i>
  </separator>
  <separator name="ionic" >
   <i type="int" name="NSW">   100</i>
   <i type="int" name="IBRION">     2</i>
   <i type="int" name="MDALGO">     0</i>
   <i type="int" name="ISIF">     3</i>
   <i name="PSTRESS">      0.00000000</i>
   <i name="EDIFFG">      0.00100000</i>
   <i type="int" name="NFREE">     1</i>
   <i name="POTIM">      0.50000000</i>
   <i name="SMASS">     -3.00000000</i>
   <i name="SCALEE">      1.00000000</i>
  </separator>
  <separator name="ionic md" >
   <i name="TEBEG">      0.00010000</i>
   <i name="TEEND">      0.00010000</i>
   <i type="int" name="NBLOCK">     1</i>
   <i type="int" name="KBLOCK">   100</i>
   <i type="int" name="NPACO">   256</i>
   <i name="APACO">     16.00000000</i>
  </separator>
  <separator name="symmetry" >
   <i type="int" name="ISYM">     2</i>
   <i name="SYMPREC">      0.00001000</i>
  </separator>
  <separator name="dos" >
   <i type="int" name="LORBIT">     0</i>
   <v name="RWIGS">     -1.00000000     -1.00000000     -1.00000000</v>
   <i type="int" name="NEDOS">   301</i>
   <i name="EMIN">     10.00000000</i>
   <i name="EMAX">    -10.00000000</i>
   <i name="EFERMI">      0.00000000</i>
  </separator>
  <separator name="writing" >
   <i type="int" name="NWRITE">     2</i>
   <i type="logical" name="LWAVE"> T  </i>
   <i type="logical" name="LDOWNSAMPLE"> F  </i>
   <i type="logical" name="LCHARG"> T  </i>
   <i type="logical" name="LPARD"> F  </i>
   <i type="logical" name="LVTOT"> F  </i>
   <i type="logical" name="LVHAR"> F  </i>
   <i type="logical" name="LELF"> F  </i>
   <i type="logical" name="LOPTICS"> F  </i>
   <v name="STM">      0.00000000      0.00000000      0.00000000      0.00000000      0.00000000      0.00000000      0.00000000</v>
  </separator>
  <separator name="performance" >
   <i type="int" name="NPAR">     2</i>
   <i type="int" name="NSIM">     4</i>
   <i type="int" name="NBLK">    -1</i>
   <i type="logical" name="LPLANE"> T  </i>
   <i type="logical" name="LSCALAPACK"> T  </i>
   <i type="logical" name="LSCAAWARE"> F  </i>
   <i type="logical" name="LSCALU"> F  </i>
   <i type="logical" name="LASYNC"> F  </i>
   <i type="logical" name="LORBITALREAL"> F  </i>
  </separator>
  <separator name="miscellaneous" >
   <i type="int" name="IDIOT">     3</i>
   <i type="int" name="ISPECIAL">     0</i>
   <i type="logical" name="LMUSIC"> F  </i>
   <v name="POMASS">     10.81100000     55.84700000    144.24000000</v>
   <v name="DARWINR">      0.00000000      0.00000000      0.00000000</v>
   <v name="DARWINV">      1.00000000      1.00000000      1.00000000</v>
   <i type="logical" name="LCORR"> T  </i>
  </separator>
  <i type="logical" name="GGA_COMPAT"> T  </i>
  <i type="logical" name="LBERRY"> F  </i>
  <i type="int" name="ICORELEVEL">     0</i>
  <i type="logical" name="LDAU"> F  </i>
  <i type="int" name="I_CONSTRAINED_M">     0</i>
  <separator name="electronic exchange-correlation" >
   <i type="string" name="GGA">--</i>
   <i type="int" name="VOSKOWN">     0</i>
   <i type="logical" name="LHFCALC"> F  </i>
   <i type="string" name="PRECFOCK"></i>
   <i type="logical" name="LSYMGRAD"> F  </i>
   <i type="logical" name="LHFONE"> F  </i>
   <i type="logical" name="LRHFCALC"> F  </i>
   <i type="logical" name="LTHOMAS"> F  </i>
   <i type="logical" name="LMODELHF"> F  </i>
   <i name="ENCUT4O">     -1.00000000</i>
   <i type="int" name="EXXOEP">     0</i>
   <i type="int" name="FOURORBIT">     0</i>
   <i name="AEXX">      0.00000000</i>
   <i name="HFALPHA">      0.00000000</i>
   <i name="MCALPHA">      0.00000000</i>
   <i name="ALDAX">      1.00000000</i>
   <i name="AGGAX">      1.00000000</i>
   <i name="ALDAC">      1.00000000</i>
   <i name="AGGAC">      1.00000000</i>
   <i type="int" name="NKREDX">     1</i>
   <i type="int" name="NKREDY">     1</i>
   <i type="int" name="NKREDZ">     1</i>
   <i type="logical" name="SHIFTRED"> F  </i>
   <i type="logical" name="ODDONLY"> F  </i>
   <i type="logical" name="EVENONLY"> F  </i>
   <i type="int" name="LMAXFOCK">     0</i>
   <i type="int" name="NMAXFOCKAE">     0</i>
   <i type="logical" name="LFOCKAEDFT"> F  </i>
   <i name="HFSCREEN">      0.00000000</i>
   <i name="HFSCREENC">      0.00000000</i>
   <i type="int" name="NBANDSGWLOW">     0</i>
  </separator>
  <separator name="vdW DFT" >
   <i type="logical" name="LUSE_VDW"> F  </i>
   <i name="Zab_VDW">     -0.84910000</i>
   <i name="PARAM1">      0.12340000</i>
   <i name="PARAM2">      1.00000000</i>
   <i name="PARAM3">      0.00000000</i>
  </separator>
  <separator name="model GW" >
   <i type="int" name="MODEL_GW">     0</i>
   <i name="MODEL_EPS0">      6.04550106</i>
   <i name="MODEL_ALPHA">      1.00000000</i>
  </separator>
  <separator name="linear response parameters" >
   <i type="logical" name="LEPSILON"> F  </i>
   <i type="logical" name="LRPA"> F  </i>
   <i type="logical" name="LNABLA"> F  </i>
   <i type="logical" name="LVEL"> F  </i>
   <i type="int" name="KINTER">     0</i>
   <i name="CSHIFT">      0.10000000</i>
   <i name="OMEGAMAX">     -1.00000000</i>
   <i name="DEG_THRESHOLD">      0.00200000</i>
   <i name="RTIME">     -0.10000000</i>
   <i name="WPLASMAI">      0.00000000</i>
   <v name="DFIELD">      0.00000000      0.00000000      0.00000000</v>
   <v name="WPLASMA">      0.00000000      0.00000000      0.00000000      0.00000000      0.00000000      0.00000000      0.00000000      0.00000000      0.00000000</v>
  </separator>
  <separator name="orbital magnetization" >
   <i type="logical" name="NUCIND"> F  </i>
   <v name="MAGPOS">      0.00000000      0.00000000      0.00000000</v>
   <i type="logical" name="LNICSALL"> T  </i>
   <i type="logical" name="ORBITALMAG"> F  </i>
   <i type="logical" name="LMAGBLOCH"> F  </i>
   <i type="logical" name="LCHIMAG"> F  </i>
   <i type="logical" name="LGAUGE"> T  </i>
   <i type="int" name="MAGATOM">     0</i>
   <v name="MAGDIPOL">      0.00000000      0.00000000      0.00000000</v>
   <v name="AVECCONST">      0.00000000      0.00000000      0.00000000</v>
  </separator>
  <separator name="response functions" >
   <i type="logical" name="LADDER"> F  </i>
   <i type="logical" name="LRPAFORCE"> F  </i>
   <i type="logical" name="LFXC"> F  </i>
   <i type="logical" name="LHARTREE"> T  </i>
   <i type="int" name="IBSE">     0</i>
   <v type="int" name="KPOINT">    -1     0     0     0</v>
   <i type="logical" name="LTCTE"> F  </i>
   <i type="logical" name="LTETE"> F  </i>
   <i type="logical" name="LTRIPLET"> F  </i>
   <i type="logical" name="LFXCEPS"> F  </i>
   <i type="logical" name="LFXHEG"> F  </i>
   <i type="int" name="NATURALO">     2</i>
   <i type="logical" name="L2ORDER"> F  </i>
   <i type="logical" name="LMP2LT"> F  </i>
   <i type="logical" name="LUSEW"> F  </i>
   <i name="ENCUTGW">     -2.00000000</i>
   <i name="ENCUTGWSOFT">     -2.00000000</i>
   <i name="ENCUTLF">     -1.00000000</i>
   <i type="int" name="LMAXMP2">    -1</i>
   <i name="SCISSOR">      0.00000000</i>
   <i type="int" name="NOMEGA">     0</i>
   <i type="int" name="NOMEGAR">     0</i>
   <i type="int" name="NBANDSGW">    -1</i>
   <i type="int" name="NBANDSO">    -1</i>
   <i type="int" name="NBANDSV">    -1</i>
   <i type="int" name="NELM">     1</i>
   <i type="int" name="NELMHF">     1</i>
   <i type="int" name="DIM">     3</i>
   <i type="int" name="ANTIRES">     0</i>
   <i name="OMEGAMAX">    -30.00000000</i>
   <i name="OMEGAMIN">    -30.00000000</i>
   <i name="OMEGATL">   -200.00000000</i>
   <i type="int" name="OMEGAGRID">   140</i>
   <i name="CSHIFT">     -0.10000000</i>
   <i type="logical" name="SELFENERGY"> F  </i>
   <i type="logical" name="LSPECTRAL"> F  </i>
   <i type="logical" name="LSPECTRALGW"> F  </i>
   <i type="logical" name="LSINGLES"> F  </i>
   <i type="logical" name="LFERMIGW"> F  </i>
   <i type="logical" name="ODDONLYGW"> F  </i>
   <i type="logical" name="EVENONLYGW"> F  </i>
   <i type="int" name="NKREDLFX">     1</i>
   <i type="int" name="NKREDLFY">     1</i>
   <i type="int" name="NKREDLFZ">     1</i>
   <i type="int" name="MAXMEM">  2800</i>
   <i type="int" name="TELESCOPE">     0</i>
   <i type="int" name="TAUPAR">     1</i>
   <i type="int" name="OMEGAPAR">    -1</i>
   <i name="LAMBDA">      1.00000000</i>
  </separator>
  <separator name="External order field" >
   <i name="OFIELD_KAPPA">      0.00000000</i>
   <v name="OFIELD_K">      0.00000000      0.00000000      0.00000000</v>
   <i name="OFIELD_Q6_NEAR">      0.00000000</i>
   <i name="OFIELD_Q6_FAR">      0.00000000</i>
   <i name="OFIELD_A">      0.00000000</i>
  </separator>
 </parameters>
 <atominfo>
  <atoms>      18 </atoms>
  <types>       3 </types>
  <array name="atoms" >
   <dimension dim="1">ion</dimension>
   <field type="string">element</field>
   <field type="int">atomtype</field>
   <set>
    <rc><c>B </c><c>   1</c></rc>
    <rc><c>B </c><c>   1</c></rc>
    <rc><c>B </c><c>   1</c></rc>
    <rc><c>B </c><c>   1</c></rc>
    <rc><c>B </c><c>   1</c></rc>
    <rc><c>B </c><c>   1</c></rc>
    <rc><c>B </c><c>   1</c></rc>
    <rc><c>B </c><c>   1</c></rc>
    <rc><c>Fe</c><c>   2</c></rc>
    <rc><c>Fe</c><c>   2</c></rc>
    <rc><c>Fe</c><c>   2</c></rc>
    <rc><c>Fe</c><c>   2</c></rc>
    <rc><c>Fe</c><c>   2</c></rc>
    <rc><c>Fe</c><c>   2</c></rc>
    <rc><c>Fe</c><c>   2</c></rc>
    <rc><c>Fe</c><c>   2</c></rc>
    <rc><c>Nd</c><c>   3</c></rc>
    <rc><c>Nd</c><c>   3</c></rc>
   </set>
  </array>
  <array name="atomtypes" >
   <dimension dim="1">type</dimension>
   <field type="int">atomspertype</field>
   <field type="string">element</field>
   <field>mass</field>
   <field>valence</field>
   <field type="string">pseudopotential</field>
   <set>
    <rc><c>   8</c><c>B </c><c>     10.81100000</c><c>      3.00000000</c><c>  PAW_PBE B 06Sep2000                   </c></rc>
    <rc><c>   8</c><c>Fe</c><c>     55.84700000</c><c>      8.00000000</c><c>  PAW_PBE Fe 06Sep2000                  </c></rc>
    <rc><c>   2</c><c>Nd</c><c>    144.24000000</c><c>     11.00000000</c><c>  PAW_PBE Nd_3 06Sep2000                </c></rc>
   </set>
  </array>
 </atominfo>
 <structure name="initialpos" >
  <crystal>
   <varray name="basis" >
    <v>       5.07435400       0.00000000       0.00000000 </v>
    <v>       0.00000000       5.07435400       0.00000000 </v>
    <v>       0.00000000       0.00000000       7.04355700 </v>
   </varray>
   <i name="volume">    181.36503180 </i>
   <varray name="rec_basis" >
    <v>       0.19706942       0.00000000       0.00000000 </v>
    <v>       0.00000000       0.19706942       0.00000000 </v>
    <v>       0.00000000       0.00000000       0.14197372 </v>
   </varray>
  </crystal>
  <varray name="positions" >
   <v>       0.50000000       0.17442400       0.15819000 </v>
   <v>       0.50000000       0.82557600       0.15819000 </v>
   <v>       0.00000000       0.32557600       0.34181000 </v>
   <v>       0.00000000       0.67442400       0.34181000 </v>
   <v>       0.32557600       0.00000000       0.65819000 </v>
   <v>       0.67442400       0.00000000       0.65819000 </v>
   <v>       0.17442400       0.50000000       0.84181000 </v>
   <v>       0.82557600       0.50000000       0.84181000 </v>
   <v>       0.25862100       0.50000000       0.13058500 </v>
   <v>       0.74137900       0.50000000       0.13058500 </v>
   <v>       0.24137900       0.00000000       0.36941500 </v>
   <v>       0.75862100       0.00000000       0.36941500 </v>
   <v>       0.00000000       0.24137900       0.63058500 </v>
   <v>       0.00000000       0.75862100       0.63058500 </v>
   <v>       0.50000000       0.25862100       0.86941500 </v>
   <v>       0.50000000       0.74137900       0.86941500 </v>
   <v>       0.00000000       0.00000000       0.00000000 </v>
   <v>       0.50000000       0.50000000       0.50000000 </v>
  </varray>
 </structure>
 <calculation>
  <scstep>
   <time name="dav">   90.61   90.62</time>
   <time name="total">   90.89   90.89</time>
   <energy>
    <i name="alphaZ">    825.38107945 </i>
    <i name="ewald">  -7218.65584784 </i>
    <i name="hartreedc">  -1268.26067390 </i>
    <i name="XCdc">    179.61071730 </i>
    <i name="pawpsdc">   6196.54776131 </i>
    <i name="pawaedc">  -6187.73201187 </i>
    <i name="eentropy">     -0.15939417 </i>
    <i name="bandstr">   1093.60488630 </i>
    <i name="atom">   7191.90950758 </i>
    <i name="e_fr_energy">    812.24602415 </i>
    <i name="e_wo_entrp">    812.40541832 </i>
    <i name="e_0_energy">    812.32572124 </i>
   </energy>
  </scstep>
  <scstep>
   <time name="dav">   90.73   90.74</time>
   <time name="total">   90.76   90.77</time>
   <energy>
    <i name="e_fr_energy">    -49.73200648 </i>
    <i name="e_wo_entrp">    -49.53530801 </i>
    <i name="e_0_energy">    -49.63365725 </i>
   </energy>
  </scstep>
  <scstep>
   <time name="dav">  103.74  103.74</time>
   <time name="total">  103.78  103.78</time>
   <energy>
    <i name="e_fr_energy">   -139.26706126 </i>
    <i name="e_wo_entrp">   -139.03504880 </i>
    <i name="e_0_energy">   -139.15105503 </i>
   </energy>
  </scstep>
  <scstep>
   <time name="dav">  129.23  129.24</time>
   <time name="total">  129.27  129.27</time>
   <energy>
    <i name="e_fr_energy">   -144.93504019 </i>
    <i name="e_wo_entrp">   -144.69726663 </i>
    <i name="e_0_energy">   -144.81615341 </i>
   </energy>
  </scstep>
  <scstep>
   <time name="dav">  129.54  129.55</time>
   <time name="total">  131.49  131.50</time>
   <energy>
    <i name="e_fr_energy">   -145.19293308 </i>
    <i name="e_wo_entrp">   -144.95458528 </i>
    <i name="e_0_energy">   -145.07375918 </i>
   </energy>
  </scstep>
  <scstep>
   <time name="diag">   12.15   12.15</time>
   <time name="diis">   53.46   53.47</time>
   <time name="orth">    4.28    4.28</time>
   <time name="total">   71.98   71.99</time>
   <energy>
    <i name="e_fr_energy">   -181.38671227 </i>
    <i name="e_wo_entrp">   -181.20189064 </i>
    <i name="e_0_energy">   -181.29430146 </i>
   </energy>
  </scstep>
  <scstep>
   <time name="diag">   12.05   12.05</time>
   <time name="diis">   54.27   54.27</time>
   <time name="orth">    4.28    4.28</time>
   <time name="total">   72.78   72.78</time>
   <energy>
    <i name="e_fr_energy">   -130.37152254 </i>
    <i name="e_wo_entrp">   -130.01859320 </i>
    <i name="e_0_energy">   -130.19505787 </i>
   </energy>
  </scstep>
  <scstep>
   <time name="diag">   12.07   12.07</time>
   <time name="diis">   53.82   53.82</time>
   <time name="orth">    4.28    4.28</time>
   <time name="total">   72.36   72.36</time>
   <energy>
    <i name="e_fr_energy">   -134.31431409 </i>
    <i name="e_wo_entrp">   -133.93930739 </i>
    <i name="e_0_energy">   -134.12681074 </i>
   </energy>
  </scstep>
  <scstep>
   <time name="diag">   12.08   12.08</time>
   <time name="diis">   56.38   56.38</time>
   <time name="orth">    4.28    4.28</time>
   <time name="total">   74.93   74.93</time>
   <energy>
    <i name="e_fr_energy">   -134.75846447 </i>
    <i name="e_wo_entrp">   -134.39027119 </i>
    <i name="e_0_energy">   -134.57436783 </i>
   </energy>
  </scstep>
  <scstep>
   <time name="diag">   12.07   12.07</time>
   <time name="diis">   56.43   56.43</time>
   <time name="orth">    4.28    4.28</time>
   <time name="total">   74.93   74.93</time>
   <energy>
    <i name="e_fr_energy">   -135.50621342 </i>
    <i name="e_wo_entrp">   -135.24255355 </i>
    <i name="e_0_energy">   -135.37438349 </i>
   </energy>
  </scstep>
  <scstep>
   <time name="diag">   12.10   12.10</time>
   <time name="diis">   63.52   63.52</time>
   <time name="orth">    4.28    4.28</time>
   <time name="total">   82.06   82.06</time>
   <energy>
    <i name="e_fr_energy">   -135.50963586 </i>
    <i name="e_wo_entrp">   -135.23024113 </i>
    <i name="e_0_energy">   -135.36993850 </i>
   </energy>
  </scstep>
  <scstep>
   <time name="diag">   12.13   12.13</time>
   <time name="diis">   65.35   65.35</time>
   <time name="orth">    4.29    4.29</time>
   <time name="total">   83.93   83.93</time>
   <energy>
    <i name="e_fr_energy">   -135.51227040 </i>
    <i name="e_wo_entrp">   -135.23036078 </i>
    <i name="e_0_energy">   -135.37131559 </i>
   </energy>
  </scstep>
  <scstep>
   <time name="diag">   12.11   12.11</time>
   <time name="diis">   66.68   66.68</time>
   <time name="orth">    4.29    4.29</time>
   <time name="total">   85.23   85.23</time>
   <energy>
    <i name="e_fr_energy">   -135.51301505 </i>
    <i name="e_wo_entrp">   -135.22722713 </i>
    <i name="e_0_energy">   -135.37012109 </i>
   </energy>
  </scstep>
  <scstep>
   <time name="diag">   12.12   12.12</time>
   <time name="diis">   59.30   59.30</time>
   <time name="orth">    4.28    4.28</time>
   <time name="total">   77.85   77.85</time>
   <energy>
    <i name="e_fr_energy">   -135.51318538 </i>
    <i name="e_wo_entrp">   -135.22534405 </i>
    <i name="e_0_energy">   -135.36926472 </i>
   </energy>
  </scstep>
  <scstep>
   <time name="diag">   12.13   12.13</time>
   <time name="diis">   37.96   37.96</time>
   <time name="orth">    4.29    4.29</time>
   <time name="total">   54.66   54.66</time>
   <energy>
    <i name="alphaZ">    825.38107945 </i>
    <i name="ewald">  -7218.65584784 </i>
    <i name="hartreedc">  -1105.75962913 </i>
    <i name="XCdc">    142.36651278 </i>
    <i name="pawpsdc">  10052.31438273 </i>
    <i name="pawaedc"> -10064.02043989 </i>
    <i name="eentropy">     -0.28775025 </i>
    <i name="bandstr">     41.23902851 </i>
    <i name="atom">   7191.90950758 </i>
    <i name="e_fr_energy">   -135.51315608 </i>
    <i name="e_wo_entrp">   -135.22540583 </i>
    <i name="e_0_energy">   -135.36928096 </i>
   </energy>
  </scstep>
  <structure>
   <crystal>
    <varray name="basis" >
     <v>       5.07435400       0.00000000       0.00000000 </v>
     <v>       0.00000000       5.07435400       0.00000000 </v>
     <v>       0.00000000       0.00000000       7.04355700 </v>
    </varray>
    <i name="volume">    181.36503180 </i>
    <varray name="rec_basis" >
     <v>       0.19706942       0.00000000       0.00000000 </v>
     <v>       0.00000000       0.19706942       0.00000000 </v>
     <v>       0.00000000       0.00000000       0.14197372 </v>
    </varray>
   </crystal>
   <varray name="positions" >
    <v>       0.50000000       0.17442400       0.15819000 </v>
    <v>       0.50000000       0.82557600       0.15819000 </v>
    <v>       0.00000000       0.32557600       0.34181000 </v>
    <v>       0.00000000       0.67442400       0.34181000 </v>
    <v>       0.32557600       0.00000000       0.65819000 </v>
    <v>       0.67442400       0.00000000       0.65819000 </v>
    <v>       0.17442400       0.50000000       0.84181000 </v>
    <v>       0.82557600       0.50000000       0.84181000 </v>
    <v>       0.25862100       0.50000000       0.13058500 </v>
    <v>       0.74137900       0.50000000       0.13058500 </v>
    <v>       0.24137900       0.00000000       0.36941500 </v>
    <v>       0.75862100       0.00000000       0.36941500 </v>
    <v>       0.00000000       0.24137900       0.63058500 </v>
    <v>       0.00000000       0.75862100       0.63058500 </v>
    <v>       0.50000000       0.25862100       0.86941500 </v>
    <v>       0.50000000       0.74137900       0.86941500 </v>
    <v>       0.00000000       0.00000000       0.00000000 </v>
    <v>       0.50000000       0.50000000       0.50000000 </v>
   </varray>
  </structure>
  <varray name="forces" >
   <v>      -0.00000000       0.02292315      -0.01119660 </v>
   <v>      -0.00000000      -0.02292315      -0.01119660 </v>
   <v>      -0.00000000      -0.02292315       0.01119660 </v>
   <v>       0.00000000       0.02292315       0.01119660 </v>
   <v>      -0.02292315      -0.00000000      -0.01119660 </v>
   <v>       0.02292315      -0.00000000      -0.01119660 </v>
   <v>       0.02292315      -0.00000000       0.01119660 </v>
   <v>      -0.02292315      -0.00000000       0.01119660 </v>
   <v>       0.02141805      -0.00000000       0.02642155 </v>
   <v>      -0.02141805      -0.00000000       0.02642155 </v>
   <v>      -0.02141805      -0.00000000      -0.02642155 </v>
   <v>       0.02141805      -0.00000000      -0.02642155 </v>
   <v>      -0.00000000      -0.02141805       0.02642155 </v>
   <v>       0.00000000       0.02141805       0.02642155 </v>
   <v>       0.00000000       0.02141805      -0.02642155 </v>
   <v>      -0.00000000      -0.02141805      -0.02642155 </v>
   <v>      -0.00000000      -0.00000000       0.00000000 </v>
   <v>      -0.00000000      -0.00000000       0.00000000 </v>
  </varray>
  <varray name="stress" >
   <v>      -3.43983456       0.00000000       0.00000000 </v>
   <v>       0.00000000      -3.43983456       0.00000000 </v>
   <v>       0.00000000       0.00000000      -2.50628216 </v>
  </varray>
  <energy>
   <i name="e_fr_energy">   -135.51315608 </i>
   <i name="e_wo_entrp">   -135.36928096 </i>
   <i name="e_0_energy">     -0.28775025 </i>
  </energy>
  <time name="totalsc"> 1441.05 1441.32</time>
 </calculation>
 <calculation>
  <scstep>
   <time name="dav">  110.97  110.97</time>
   <time name="total">  113.11  113.11</time>
   <energy>
    <i name="alphaZ">    827.73593105 </i>
    <i name="ewald">  -7225.11797740 </i>
    <i name="hartreedc">  -1107.16446434 </i>
    <i name="XCdc">    142.69910116 </i>
    <i name="pawpsdc">  10053.41394566 </i>
    <i name="pawaedc"> -10065.09481213 </i>
    <i name="eentropy">     -0.28683371 </i>
    <i name="bandstr">     46.38415687 </i>
    <i name="atom">   7191.90950758 </i>
    <i name="e_fr_energy">   -135.52144526 </i>
    <i name="e_wo_entrp">   -135.23461155 </i>
    <i name="e_0_energy">   -135.37802841 </i>
   </energy>
  </scstep>
  <scstep>
   <time name="diag">   12.12   12.12</time>
   <time name="diis">   55.25   55.26</time>
   <time name="orth">    4.28    4.28</time>
   <time name="total">   73.81   73.81</time>
   <energy>
    <i name="e_fr_energy">   -135.53784431 </i>
    <i name="e_wo_entrp">   -135.25157231 </i>
    <i name="e_0_energy">   -135.39470831 </i>
   </energy>
  </scstep>
  <scstep>
   <time name="diag">   12.05   12.05</time>
   <time name="diis">   54.71   54.72</time>
   <time name="orth">    4.28    4.28</time>
   <time name="total">   73.19   73.19</time>
   <energy>
    <i name="e_fr_energy">   -135.51351381 </i>
    <i name="e_wo_entrp">   -135.22629601 </i>
    <i name="e_0_energy">   -135.36990491 </i>
   </energy>
  </scstep>
  <scstep>
   <time name="diag">   12.08   12.08</time>
   <time name="diis">   58.14   58.14</time>
   <time name="orth">    4.28    4.28</time>
   <time name="total">   76.65   76.65</time>
   <energy>
    <i name="e_fr_energy">   -135.51300729 </i>
    <i name="e_wo_entrp">   -135.22543266 </i>
    <i name="e_0_energy">   -135.36921997 </i>
   </energy>
  </scstep>
  <scstep>
   <time name="diag">   12.13   12.13</time>
   <time name="diis">   39.37   39.37</time>
   <time name="orth">    4.28    4.28</time>
   <time name="total">   56.06   56.07</time>
   <energy>
    <i name="alphaZ">    827.73593105 </i>
    <i name="ewald">  -7225.11797740 </i>
    <i name="hartreedc">  -1103.93530605 </i>
    <i name="XCdc">    142.51631540 </i>
    <i name="pawpsdc">  10083.49170656 </i>
    <i name="pawaedc"> -10095.29797400 </i>
    <i name="eentropy">     -0.28773561 </i>
    <i name="bandstr">     43.47250586 </i>
    <i name="atom">   7191.90950758 </i>
    <i name="e_fr_energy">   -135.51302660 </i>
    <i name="e_wo_entrp">   -135.22529099 </i>
    <i name="e_0_energy">   -135.36915879 </i>
   </energy>
  </scstep>
  <structure>
   <crystal>
    <varray name="basis" >
     <v>       5.06905834       0.00000000       0.00000000 </v>
     <v>       0.00000000       5.06905834       0.00000000 </v>
     <v>       0.00000000       0.00000000       7.03820121 </v>
    </varray>
    <i name="volume">    180.84906080 </i>
    <varray name="rec_basis" >
     <v>       0.19727530       0.00000000       0.00000000 </v>
     <v>       0.00000000       0.19727530       0.00000000 </v>
     <v>       0.00000000      -0.00000000       0.14208176 </v>
    </varray>
   </crystal>
   <varray name="positions" >
    <v>       0.50000000       0.17464193       0.15811331 </v>
    <v>       0.50000000       0.82535807       0.15811331 </v>
    <v>      -0.00000000       0.32535807       0.34188669 </v>
    <v>       0.00000000       0.67464193       0.34188669 </v>
    <v>       0.32535807      -0.00000000       0.65811331 </v>
    <v>       0.67464193      -0.00000000       0.65811331 </v>
    <v>       0.17464193       0.50000000       0.84188669 </v>
    <v>       0.82535807       0.50000000       0.84188669 </v>
    <v>       0.25882462       0.50000000       0.13076597 </v>
    <v>       0.74117538       0.50000000       0.13076597 </v>
    <v>       0.24117538      -0.00000000       0.36923403 </v>
    <v>       0.75882462      -0.00000000       0.36923403 </v>
    <v>      -0.00000000       0.24117538       0.63076597 </v>
    <v>       0.00000000       0.75882462       0.63076597 </v>
    <v>       0.50000000       0.25882462       0.86923403 </v>
    <v>       0.50000000       0.74117538       0.86923403 </v>
    <v>      -0.00000000      -0.00000000       0.00000000 </v>
    <v>       0.50000000       0.50000000       0.50000000 </v>
   </varray>
  </structure>
  <varray name="forces" >
   <v>       0.00000000      -0.00966691      -0.00696878 </v>
   <v>      -0.00000000       0.00966691      -0.00696878 </v>
   <v>      -0.00000000       0.00966691       0.00696878 </v>
   <v>      -0.00000000      -0.00966691       0.00696878 </v>
   <v>       0.00966691      -0.00000000      -0.00696878 </v>
   <v>      -0.00966691      -0.00000000      -0.00696878 </v>
   <v>      -0.00966691      -0.00000000       0.00696878 </v>
   <v>       0.00966691      -0.00000000       0.00696878 </v>
   <v>      -0.01985419      -0.00000000       0.01613581 </v>
   <v>       0.01985419      -0.00000000       0.01613581 </v>
   <v>       0.01985419      -0.00000000      -0.01613581 </v>
   <v>      -0.01985419      -0.00000000      -0.01613581 </v>
   <v>       0.00000000       0.01985419       0.01613581 </v>
   <v>      -0.00000000      -0.01985419       0.01613581 </v>
   <v>      -0.00000000      -0.01985419      -0.01613581 </v>
   <v>      -0.00000000       0.01985419      -0.01613581 </v>
   <v>      -0.00000000      -0.00000000       0.00000000 </v>
   <v>      -0.00000000      -0.00000000       0.00000000 </v>
  </varray>
  <varray name="stress" >
   <v>       4.43370924       0.00000000       0.00000000 </v>
   <v>       0.00000000       4.43370924       0.00000000 </v>
   <v>       0.00000000       0.00000000       3.55183579 </v>
  </varray>
  <energy>
   <i name="e_fr_energy">   -135.51302660 </i>
   <i name="e_wo_entrp">   -135.36915879 </i>
   <i name="e_0_energy">     -0.28773561 </i>
  </energy>
  <time name="totalsc">  536.68  536.95</time>
 </calculation>
 <calculation>
  <scstep>
   <time name="dav">  111.72  111.72</time>
   <time name="total">  113.87  113.87</time>
   <energy>
    <i name="alphaZ">    826.67838624 </i>
    <i name="ewald">  -7222.21882733 </i>
    <i name="hartreedc">  -1103.33991225 </i>
    <i name="XCdc">    142.36882850 </i>
    <i name="pawpsdc">  10083.77603372 </i>
    <i name="pawaedc"> -10095.56400793 </i>
    <i name="eentropy">     -0.28828261 </i>
    <i name="bandstr">     41.16311588 </i>
    <i name="atom">   7191.90950758 </i>
    <i name="e_fr_energy">   -135.51515821 </i>
    <i name="e_wo_entrp">   -135.22687560 </i>
    <i name="e_0_energy">   -135.37101691 </i>
   </energy>
  </scstep>
  <scstep>
   <time name="diag">   12.10   12.10</time>
   <time name="diis">   55.21   55.22</time>
   <time name="orth">    4.28    4.28</time>
   <time name="total">   73.75   73.75</time>
   <energy>
    <i name="e_fr_energy">   -135.51829169 </i>
    <i name="e_wo_entrp">   -135.22969144 </i>
    <i name="e_0_energy">   -135.37399157 </i>
   </energy>
  </scstep>
  <scstep>
   <time name="diag">   12.13   12.13</time>
   <time name="diis">   53.51   53.52</time>
   <time name="orth">    4.28    4.28</time>
   <time name="total">   72.08   72.09</time>
   <energy>
    <i name="e_fr_energy">   -135.51359978 </i>
    <i name="e_wo_entrp">   -135.22524617 </i>
    <i name="e_0_energy">   -135.36942297 </i>
   </energy>
  </scstep>
  <scstep>
   <time name="diag">   12.10   12.10</time>
   <time name="diis">   41.46   41.47</time>
   <time name="orth">    4.28    4.28</time>
   <time name="total">   60.02   60.02</time>
   <energy>
    <i name="e_fr_energy">   -135.51347243 </i>
    <i name="e_wo_entrp">   -135.22509659 </i>
    <i name="e_0_energy">   -135.36928451 </i>
   </energy>
  </scstep>
  <scstep>
   <time name="diag">   12.08   12.08</time>
   <time name="diis">   30.58   30.58</time>
   <time name="orth">    4.28    4.28</time>
   <time name="total">   47.21   47.22</time>
   <energy>
    <i name="alphaZ">    826.67838624 </i>
    <i name="ewald">  -7222.21882733 </i>
    <i name="hartreedc">  -1104.81579188 </i>
    <i name="XCdc">    142.44963587 </i>
    <i name="pawpsdc">  10072.22764913 </i>
    <i name="pawaedc"> -10083.88451462 </i>
    <i name="eentropy">     -0.28838014 </i>
    <i name="bandstr">     42.42886098 </i>
    <i name="atom">   7191.90950758 </i>
    <i name="e_fr_energy">   -135.51347419 </i>
    <i name="e_wo_entrp">   -135.22509404 </i>
    <i name="e_0_energy">   -135.36928411 </i>
   </energy>
  </scstep>
  <structure>
   <crystal>
    <varray name="basis" >
     <v>       5.07143408       0.00000000       0.00000000 </v>
     <v>       0.00000000       5.07143408       0.00000000 </v>
     <v>       0.00000000       0.00000000       7.04060392 </v>
    </varray>
    <i name="volume">    181.08041557 </i>
    <varray name="rec_basis" >
     <v>       0.19718288       0.00000000       0.00000000 </v>
     <v>       0.00000000       0.19718288       0.00000000 </v>
     <v>       0.00000000      -0.00000000       0.14203327 </v>
    </varray>
   </crystal>
   <varray name="positions" >
    <v>       0.50000000       0.17454406       0.15814774 </v>
    <v>       0.50000000       0.82545594       0.15814774 </v>
    <v>      -0.00000000       0.32545594       0.34185226 </v>
    <v>       0.00000000       0.67454406       0.34185226 </v>
    <v>       0.32545594      -0.00000000       0.65814774 </v>
    <v>       0.67454406      -0.00000000       0.65814774 </v>
    <v>       0.17454406       0.50000000       0.84185226 </v>
    <v>       0.82545594       0.50000000       0.84185226 </v>
    <v>       0.25873318       0.50000000       0.13068472 </v>
    <v>       0.74126682       0.50000000       0.13068472 </v>
    <v>       0.24126682      -0.00000000       0.36931528 </v>
    <v>       0.75873318      -0.00000000       0.36931528 </v>
    <v>      -0.00000000       0.24126682       0.63068472 </v>
    <v>       0.00000000       0.75873318       0.63068472 </v>
    <v>       0.50000000       0.25873318       0.86931528 </v>
    <v>       0.50000000       0.74126682       0.86931528 </v>
    <v>      -0.00000000      -0.00000000       0.00000000 </v>
    <v>       0.50000000       0.50000000       0.50000000 </v>
   </varray>
  </structure>
  <varray name="forces" >
   <v>       0.00000000       0.00632369      -0.00925087 </v>
   <v>       0.00000000      -0.00632369      -0.00925087 </v>
   <v>       0.00000000      -0.00632369       0.00925087 </v>
   <v>       0.00000000       0.00632369       0.00925087 </v>
   <v>      -0.00632369      -0.00000000      -0.00925087 </v>
   <v>       0.00632369      -0.00000000      -0.00925087 </v>
   <v>       0.00632369      -0.00000000       0.00925087 </v>
   <v>      -0.00632369      -0.00000000       0.00925087 </v>
   <v>       0.00038661      -0.00000000       0.02145127 </v>
   <v>      -0.00038661      -0.00000000       0.02145127 </v>
   <v>      -0.00038661      -0.00000000      -0.02145127 </v>
   <v>       0.00038661      -0.00000000      -0.02145127 </v>
   <v>       0.00000000      -0.00038661       0.02145127 </v>
   <v>       0.00000000       0.00038661       0.02145127 </v>
   <v>       0.00000000       0.00038661      -0.02145127 </v>
   <v>       0.00000000      -0.00038661      -0.02145127 </v>
   <v>       0.00000000      -0.00000000      -0.00000000 </v>
   <v>       0.00000000      -0.00000000      -0.00000000 </v>
  </varray>
  <varray name="stress" >
   <v>       3.93916190       0.00000000       0.00000000 </v>
   <v>       0.00000000       3.93916190       0.00000000 </v>
   <v>       0.00000000      -0.00000000       3.73435537 </v>
  </varray>
  <energy>
   <i name="e_fr_energy">   -135.51347419 </i>
   <i name="e_wo_entrp">   -135.36928411 </i>
   <i name="e_0_energy">     -0.28838014 </i>
  </energy>
  <time name="totalsc">  500.21  504.69</time>
  <eigenvalues>
   <array>
    <dimension dim="1">band</dimension>
    <dimension dim="2">kpoint</dimension>
    <dimension dim="3">spin</dimension>
    <field>eigene</field>
    <field>occ</field>
    <set>
     <set comment="spin 1">
      <set comment="kpoint 1">
       <r>  -30.0573    1.0000 </r>
       <r>  -30.0516    1.0000 </r>
       <r>  -11.6578    1.0000 </r>
       <r>  -11.5238    1.0000 </r>
       <r>  -11.5238    1.0000 </r>
       <r>  -11.5216    1.0000 </r>
       <r>  -11.4771    1.0000 </r>
       <r>  -11.4771    1.0000 </r>
       <r>   -4.8100    1.0000 </r>
       <r>   -2.8202    1.0000 </r>
       <r>   -2.6261    1.0000 </r>
       <r>   -2.5092    1.0000 </r>
       <r>   -0.3899    1.0000 </r>
       <r>    0.3696    1.0000 </r>
       <r>    0.3696    1.0000 </r>
       <r>    0.6609    1.0000 </r>
       <r>    0.6609    1.0000 </r>
       <r>    1.1550    1.0000 </r>
       <r>    1.1645    1.0000 </r>
       <r>    1.1645    1.0000 </r>
       <r>    1.9081    1.0000 </r>
       <r>    2.3406    1.0000 </r>
       <r>    2.8568    1.0000 </r>
       <r>    2.9313    1.0000 </r>
       <r>    2.9878    1.0000 </r>
       <r>    2.9944    1.0000 </r>
       <r>    3.3292    1.0000 </r>
       <r>    3.3292    1.0000 </r>
       <r>    3.4376    1.0000 </r>
       <r>    3.4376    1.0000 </r>
       <r>    3.5510    1.0000 </r>
       <r>    3.6264    1.0000 </r>
       <r>    3.9732    1.0000 </r>
       <r>    4.0990    1.0000 </r>
       <r>    4.1465    1.0000 </r>
       <r>    4.1465    1.0000 </r>
       <r>    4.2214    1.0000 </r>
       <r>    4.2720    1.0000 </r>
       <r>    4.4451    1.0000 </r>
       <r>    4.4686    1.0000 </r>
       <r>    5.0231    1.0000 </r>
       <r>    5.4889    1.0000 </r>
       <r>    5.4889    1.0000 </r>
       <r>    5.5458    1.0000 </r>
       <r>    5.5674    1.0000 </r>
       <r>    5.6574    1.0000 </r>
       <r>    5.6652    1.0000 </r>
       <r>    5.7082    1.0000 </r>
       <r>    5.7082    1.0000 </r>
       <r>    5.8604    0.9996 </r>
       <r>    5.9302    0.9977 </r>
       <r>    5.9302    0.9977 </r>
       <r>    6.0855    0.9590 </r>
       <r>    6.0958    0.9521 </r>
       <r>    6.0958    0.9521 </r>
       <r>    6.1633    0.8826 </r>
       <r>    6.2815    0.6377 </r>
       <r>    6.5843    0.0368 </r>
       <r>    6.8199    0.0003 </r>
       <r>    6.8199    0.0003 </r>
       <r>    6.9653    0.0000 </r>
       <r>    7.9146    0.0000 </r>
       <r>    7.9146    0.0000 </r>
       <r>    8.1386    0.0000 </r>
       <r>    8.1386    0.0000 </r>
       <r>    8.8289    0.0000 </r>
       <r>    8.9773    0.0000 </r>
       <r>    9.3029    0.0000 </r>
       <r>    9.3029    0.0000 </r>
       <r>    9.8416    0.0000 </r>
       <r>   10.4009    0.0000 </r>
       <r>   10.5866    0.0000 </r>
       <r>   10.5866    0.0000 </r>
       <r>   11.2906    0.0000 </r>
       <r>   11.2906    0.0000 </r>
       <r>   11.4213    0.0000 </r>
       <r>   11.4859    0.0000 </r>
       <r>   11.6672    0.0000 </r>
       <r>   12.6844    0.0000 </r>
       <r>   13.1052    0.0000 </r>
       <r>   13.1052    0.0000 </r>
       <r>   13.5818    0.0000 </r>
       <r>   14.0681    0.0000 </r>
       <r>   14.0681    0.0000 </r>
       <r>   14.4170    0.0000 </r>
       <r>   15.2451    0.0000 </r>
       <r>   15.3857    0.0000 </r>
       <r>   15.4167    0.0000 </r>
       <r>   15.9769    0.0000 </r>
       <r>   15.9769    0.0000 </r>
       <r>   16.0560    0.0000 </r>
       <r>   16.5842    0.0000 </r>
       <r>   16.5842    0.0000 </r>
       <r>   17.0620    0.0000 </r>
      </set>
      <set comment="kpoint 2">
       <r>  -30.0568    1.0000 </r>
       <r>  -30.0517    1.0000 </r>
       <r>  -11.6508    1.0000 </r>
       <r>  -11.5360    1.0000 </r>
       <r>  -11.5240    1.0000 </r>
       <r>  -11.5206    1.0000 </r>
       <r>  -11.4927    1.0000 </r>
       <r>  -11.4774    1.0000 </r>
       <r>   -4.7059    1.0000 </r>
       <r>   -2.8101    1.0000 </r>
       <r>   -2.6540    1.0000 </r>
       <r>   -2.4844    1.0000 </r>
       <r>   -0.5689    1.0000 </r>
       <r>    0.3705    1.0000 </r>
       <r>    0.4501    1.0000 </r>
       <r>    0.5594    1.0000 </r>
       <r>    0.6304    1.0000 </r>
       <r>    1.1141    1.0000 </r>
       <r>    1.2011    1.0000 </r>
       <r>    1.3588    1.0000 </r>
       <r>    2.0203    1.0000 </r>
       <r>    2.3277    1.0000 </r>
       <r>    2.8014    1.0000 </r>
       <r>    2.8642    1.0000 </r>
       <r>    2.9597    1.0000 </r>
       <r>    2.9735    1.0000 </r>
       <r>    3.3602    1.0000 </r>
       <r>    3.3944    1.0000 </r>
       <r>    3.4009    1.0000 </r>
       <r>    3.5081    1.0000 </r>
       <r>    3.5414    1.0000 </r>
       <r>    3.6690    1.0000 </r>
       <r>    3.6857    1.0000 </r>
       <r>    4.0270    1.0000 </r>
       <r>    4.1317    1.0000 </r>
       <r>    4.2761    1.0000 </r>
       <r>    4.2823    1.0000 </r>
       <r>    4.3825    1.0000 </r>
       <r>    4.5553    1.0000 </r>
       <r>    4.5691    1.0000 </r>
       <r>    5.0110    1.0000 </r>
       <r>    5.3442    1.0000 </r>
       <r>    5.3592    1.0000 </r>
       <r>    5.5037    1.0000 </r>
       <r>    5.6028    1.0000 </r>
       <r>    5.6188    1.0000 </r>
       <r>    5.6690    1.0000 </r>
       <r>    5.7124    1.0000 </r>
       <r>    5.7207    1.0000 </r>
       <r>    5.8662    0.9995 </r>
       <r>    5.9592    0.9958 </r>
       <r>    5.9649    0.9952 </r>
       <r>    6.0020    0.9901 </r>
       <r>    6.0355    0.9818 </r>
       <r>    6.1448    0.9064 </r>
       <r>    6.2008    0.8221 </r>
       <r>    6.2369    0.7478 </r>
       <r>    6.6060    0.0261 </r>
       <r>    6.8225    0.0003 </r>
       <r>    6.9264    0.0000 </r>
       <r>    7.0051    0.0000 </r>
       <r>    7.8902    0.0000 </r>
       <r>    7.9619    0.0000 </r>
       <r>    8.0396    0.0000 </r>
       <r>    8.0816    0.0000 </r>
       <r>    8.5781    0.0000 </r>
       <r>    9.0145    0.0000 </r>
       <r>    9.0382    0.0000 </r>
       <r>    9.5978    0.0000 </r>
       <r>   10.1804    0.0000 </r>
       <r>   10.2736    0.0000 </r>
       <r>   10.5160    0.0000 </r>
       <r>   10.7227    0.0000 </r>
       <r>   10.8918    0.0000 </r>
       <r>   11.4317    0.0000 </r>
       <r>   11.4730    0.0000 </r>
       <r>   11.5795    0.0000 </r>
       <r>   12.1693    0.0000 </r>
       <r>   12.5689    0.0000 </r>
       <r>   12.7542    0.0000 </r>
       <r>   13.1330    0.0000 </r>
       <r>   13.7060    0.0000 </r>
       <r>   13.7373    0.0000 </r>
       <r>   14.1093    0.0000 </r>
       <r>   14.2675    0.0000 </r>
       <r>   15.0723    0.0000 </r>
       <r>   15.1980    0.0000 </r>
       <r>   15.3518    0.0000 </r>
       <r>   15.7897    0.0000 </r>
       <r>   15.8905    0.0000 </r>
       <r>   16.1074    0.0000 </r>
       <r>   16.6534    0.0000 </r>
       <r>   16.7366    0.0000 </r>
       <r>   17.2417    0.0000 </r>
      </set>
      <set comment="kpoint 3">
       <r>  -30.0558    1.0000 </r>
       <r>  -30.0519    1.0000 </r>
       <r>  -11.6317    1.0000 </r>
       <r>  -11.5621    1.0000 </r>
       <r>  -11.5343    1.0000 </r>
       <r>  -11.5303    1.0000 </r>
       <r>  -11.5120    1.0000 </r>
       <r>  -11.4789    1.0000 </r>
       <r>   -4.4129    1.0000 </r>
       <r>   -2.7782    1.0000 </r>
       <r>   -2.7736    1.0000 </r>
       <r>   -2.4519    1.0000 </r>
       <r>   -0.7994    1.0000 </r>
       <r>    0.0768    1.0000 </r>
       <r>    0.3689    1.0000 </r>
       <r>    0.5538    1.0000 </r>
       <r>    0.8731    1.0000 </r>
       <r>    1.1049    1.0000 </r>
       <r>    1.3344    1.0000 </r>
       <r>    1.6639    1.0000 </r>
       <r>    2.2276    1.0000 </r>
       <r>    2.3584    1.0000 </r>
       <r>    2.5809    1.0000 </r>
       <r>    2.8416    1.0000 </r>
       <r>    2.9579    1.0000 </r>
       <r>    3.0029    1.0000 </r>
       <r>    3.0199    1.0000 </r>
       <r>    3.2428    1.0000 </r>
       <r>    3.4250    1.0000 </r>
       <r>    3.4502    1.0000 </r>
       <r>    3.5480    1.0000 </r>
       <r>    3.7971    1.0000 </r>
       <r>    3.8246    1.0000 </r>
       <r>    3.9800    1.0000 </r>
       <r>    4.2361    1.0000 </r>
       <r>    4.2464    1.0000 </r>
       <r>    4.3835    1.0000 </r>
       <r>    4.6269    1.0000 </r>
       <r>    4.7122    1.0000 </r>
       <r>    4.7375    1.0000 </r>
       <r>    4.9892    1.0000 </r>
       <r>    5.1345    1.0000 </r>
       <r>    5.1977    1.0000 </r>
       <r>    5.3066    1.0000 </r>
       <r>    5.4976    1.0000 </r>
       <r>    5.5915    1.0000 </r>
       <r>    5.6529    1.0000 </r>
       <r>    5.6823    1.0000 </r>
       <r>    5.7553    1.0000 </r>
       <r>    5.8077    0.9999 </r>
       <r>    5.8470    0.9997 </r>
       <r>    5.8661    0.9995 </r>
       <r>    5.9154    0.9984 </r>
       <r>    6.0365    0.9815 </r>
       <r>    6.0895    0.9564 </r>
       <r>    6.2110    0.8026 </r>
       <r>    6.5580    0.0545 </r>
       <r>    6.6962    0.0049 </r>
       <r>    6.8666    0.0001 </r>
       <r>    7.0628    0.0000 </r>
       <r>    7.1566    0.0000 </r>
       <r>    7.8331    0.0000 </r>
       <r>    7.8343    0.0000 </r>
       <r>    7.8366    0.0000 </r>
       <r>    8.0859    0.0000 </r>
       <r>    8.2596    0.0000 </r>
       <r>    8.9418    0.0000 </r>
       <r>    9.0806    0.0000 </r>
       <r>    9.6329    0.0000 </r>
       <r>   10.0216    0.0000 </r>
       <r>   10.2215    0.0000 </r>
       <r>   10.7070    0.0000 </r>
       <r>   10.7333    0.0000 </r>
       <r>   11.2344    0.0000 </r>
       <r>   11.5671    0.0000 </r>
       <r>   11.8087    0.0000 </r>
       <r>   11.8385    0.0000 </r>
       <r>   12.2975    0.0000 </r>
       <r>   12.4018    0.0000 </r>
       <r>   12.5612    0.0000 </r>
       <r>   13.2032    0.0000 </r>
       <r>   13.2242    0.0000 </r>
       <r>   13.5186    0.0000 </r>
       <r>   13.9728    0.0000 </r>
       <r>   14.0631    0.0000 </r>
       <r>   14.4429    0.0000 </r>
       <r>   15.0881    0.0000 </r>
       <r>   15.2650    0.0000 </r>
       <r>   15.5445    0.0000 </r>
       <r>   15.8423    0.0000 </r>
       <r>   16.4390    0.0000 </r>
       <r>   16.4995    0.0000 </r>
       <r>   16.5055    0.0000 </r>
       <r>   17.0253    0.0000 </r>
      </set>
      <set comment="kpoint 4">
       <r>  -30.0545    1.0000 </r>
       <r>  -30.0524    1.0000 </r>
       <r>  -11.6053    1.0000 </r>
       <r>  -11.5858    1.0000 </r>
       <r>  -11.5690    1.0000 </r>
       <r>  -11.5521    1.0000 </r>
       <r>  -11.5008    1.0000 </r>
       <r>  -11.4830    1.0000 </r>
       <r>   -3.9845    1.0000 </r>
       <r>   -3.0660    1.0000 </r>
       <r>   -2.6997    1.0000 </r>
       <r>   -2.4882    1.0000 </r>
       <r>   -0.8338    1.0000 </r>
       <r>   -0.3154    1.0000 </r>
       <r>    0.3714    1.0000 </r>
       <r>    0.4660    1.0000 </r>
       <r>    1.1367    1.0000 </r>
       <r>    1.3667    1.0000 </r>
       <r>    1.5945    1.0000 </r>
       <r>    1.7516    1.0000 </r>
       <r>    2.1844    1.0000 </r>
       <r>    2.3761    1.0000 </r>
       <r>    2.4604    1.0000 </r>
       <r>    2.4658    1.0000 </r>
       <r>    2.9703    1.0000 </r>
       <r>    2.9753    1.0000 </r>
       <r>    3.0804    1.0000 </r>
       <r>    3.1117    1.0000 </r>
       <r>    3.4361    1.0000 </r>
       <r>    3.5662    1.0000 </r>
       <r>    3.6009    1.0000 </r>
       <r>    3.8781    1.0000 </r>
       <r>    3.9750    1.0000 </r>
       <r>    4.0005    1.0000 </r>
       <r>    4.0967    1.0000 </r>
       <r>    4.2189    1.0000 </r>
       <r>    4.5631    1.0000 </r>
       <r>    4.7768    1.0000 </r>
       <r>    4.8406    1.0000 </r>
       <r>    4.9273    1.0000 </r>
       <r>    4.9316    1.0000 </r>
       <r>    4.9757    1.0000 </r>
       <r>    5.0571    1.0000 </r>
       <r>    5.2410    1.0000 </r>
       <r>    5.3275    1.0000 </r>
       <r>    5.3426    1.0000 </r>
       <r>    5.5679    1.0000 </r>
       <r>    5.6451    1.0000 </r>
       <r>    5.6711    1.0000 </r>
       <r>    5.7506    1.0000 </r>
       <r>    5.8236    0.9998 </r>
       <r>    5.8922    0.9990 </r>
       <r>    5.9211    0.9981 </r>
       <r>    6.0048    0.9895 </r>
       <r>    6.0382    0.9809 </r>
       <r>    6.1889    0.8430 </r>
       <r>    6.8747    0.0001 </r>
       <r>    6.9176    0.0000 </r>
       <r>    6.9643    0.0000 </r>
       <r>    7.0626    0.0000 </r>
       <r>    7.3401    0.0000 </r>
       <r>    7.5422    0.0000 </r>
       <r>    7.7268    0.0000 </r>
       <r>    7.7521    0.0000 </r>
       <r>    8.0201    0.0000 </r>
       <r>    8.2588    0.0000 </r>
       <r>    9.0388    0.0000 </r>
       <r>    9.1250    0.0000 </r>
       <r>    9.1516    0.0000 </r>
       <r>    9.6932    0.0000 </r>
       <r>   10.4104    0.0000 </r>
       <r>   10.6445    0.0000 </r>
       <r>   11.0963    0.0000 </r>
       <r>   11.8682    0.0000 </r>
       <r>   11.8887    0.0000 </r>
       <r>   11.8944    0.0000 </r>
       <r>   11.9252    0.0000 </r>
       <r>   12.2810    0.0000 </r>
       <r>   12.3229    0.0000 </r>
       <r>   12.7058    0.0000 </r>
       <r>   13.0048    0.0000 </r>
       <r>   13.1374    0.0000 </r>
       <r>   13.3723    0.0000 </r>
       <r>   13.5592    0.0000 </r>
       <r>   13.7093    0.0000 </r>
       <r>   14.1052    0.0000 </r>
       <r>   14.6921    0.0000 </r>
       <r>   14.9183    0.0000 </r>
       <r>   15.3943    0.0000 </r>
       <r>   15.5931    0.0000 </r>
       <r>   16.4269    0.0000 </r>
       <r>   16.4576    0.0000 </r>
       <r>   17.1857    0.0000 </r>
       <r>   17.3206    0.0000 </r>
      </set>
      <set comment="kpoint 5">
       <r>  -30.0532    1.0000 </r>
       <r>  -30.0532    1.0000 </r>
       <r>  -11.5909    1.0000 </r>
       <r>  -11.5909    1.0000 </r>
       <r>  -11.5762    1.0000 </r>
       <r>  -11.5762    1.0000 </r>
       <r>  -11.4904    1.0000 </r>
       <r>  -11.4904    1.0000 </r>
       <r>   -3.5010    1.0000 </r>
       <r>   -3.5010    1.0000 </r>
       <r>   -2.5917    1.0000 </r>
       <r>   -2.5917    1.0000 </r>
       <r>   -0.6466    1.0000 </r>
       <r>   -0.6466    1.0000 </r>
       <r>    0.4003    1.0000 </r>
       <r>    0.4003    1.0000 </r>
       <r>    1.4852    1.0000 </r>
       <r>    1.4852    1.0000 </r>
       <r>    1.7533    1.0000 </r>
       <r>    1.7533    1.0000 </r>
       <r>    1.9800    1.0000 </r>
       <r>    1.9800    1.0000 </r>
       <r>    2.4661    1.0000 </r>
       <r>    2.4661    1.0000 </r>
       <r>    3.0625    1.0000 </r>
       <r>    3.0625    1.0000 </r>
       <r>    3.0776    1.0000 </r>
       <r>    3.0776    1.0000 </r>
       <r>    3.6308    1.0000 </r>
       <r>    3.6308    1.0000 </r>
       <r>    3.6324    1.0000 </r>
       <r>    3.6324    1.0000 </r>
       <r>    4.0360    1.0000 </r>
       <r>    4.0360    1.0000 </r>
       <r>    4.1108    1.0000 </r>
       <r>    4.1108    1.0000 </r>
       <r>    4.7409    1.0000 </r>
       <r>    4.7409    1.0000 </r>
       <r>    4.8661    1.0000 </r>
       <r>    4.8661    1.0000 </r>
       <r>    5.0311    1.0000 </r>
       <r>    5.0311    1.0000 </r>
       <r>    5.0520    1.0000 </r>
       <r>    5.0520    1.0000 </r>
       <r>    5.2564    1.0000 </r>
       <r>    5.2564    1.0000 </r>
       <r>    5.5743    1.0000 </r>
       <r>    5.5743    1.0000 </r>
       <r>    5.6646    1.0000 </r>
       <r>    5.6646    1.0000 </r>
       <r>    5.8876    0.9991 </r>
       <r>    5.8876    0.9991 </r>
       <r>    5.9475    0.9967 </r>
       <r>    5.9475    0.9967 </r>
       <r>    6.1122    0.9394 </r>
       <r>    6.1122    0.9394 </r>
       <r>    6.9229    0.0000 </r>
       <r>    6.9229    0.0000 </r>
       <r>    7.1219    0.0000 </r>
       <r>    7.1219    0.0000 </r>
       <r>    7.4609    0.0000 </r>
       <r>    7.4609    0.0000 </r>
       <r>    7.6292    0.0000 </r>
       <r>    7.6292    0.0000 </r>
       <r>    8.1771    0.0000 </r>
       <r>    8.1771    0.0000 </r>
       <r>    9.1199    0.0000 </r>
       <r>    9.1199    0.0000 </r>
       <r>    9.1837    0.0000 </r>
       <r>    9.1837    0.0000 </r>
       <r>   10.6091    0.0000 </r>
       <r>   10.6091    0.0000 </r>
       <r>   11.5079    0.0000 </r>
       <r>   11.5079    0.0000 </r>
       <r>   11.9843    0.0000 </r>
       <r>   11.9843    0.0000 </r>
       <r>   12.3797    0.0000 </r>
       <r>   12.3797    0.0000 </r>
       <r>   12.4180    0.0000 </r>
       <r>   12.4180    0.0000 </r>
       <r>   13.1225    0.0000 </r>
       <r>   13.1225    0.0000 </r>
       <r>   13.3015    0.0000 </r>
       <r>   13.3015    0.0000 </r>
       <r>   13.8155    0.0000 </r>
       <r>   13.8155    0.0000 </r>
       <r>   14.4446    0.0000 </r>
       <r>   14.4446    0.0000 </r>
       <r>   15.4264    0.0000 </r>
       <r>   15.4264    0.0000 </r>
       <r>   16.6002    0.0000 </r>
       <r>   16.6002    0.0000 </r>
       <r>   17.6484    0.0000 </r>
       <r>   17.6485    0.0000 </r>
      </set>
      <set comment="kpoint 6">
       <r>  -30.0565    1.0000 </r>
       <r>  -30.0517    1.0000 </r>
       <r>  -11.6442    1.0000 </r>
       <r>  -11.5400    1.0000 </r>
       <r>  -11.5263    1.0000 </r>
       <r>  -11.5252    1.0000 </r>
       <r>  -11.5017    1.0000 </r>
       <r>  -11.4835    1.0000 </r>
       <r>   -4.6039    1.0000 </r>
       <r>   -2.8001    1.0000 </r>
       <r>   -2.6675    1.0000 </r>
       <r>   -2.4659    1.0000 </r>
       <r>   -0.6900    1.0000 </r>
       <r>    0.3486    1.0000 </r>
       <r>    0.3873    1.0000 </r>
       <r>    0.4797    1.0000 </r>
       <r>    0.5951    1.0000 </r>
       <r>    1.1050    1.0000 </r>
       <r>    1.3502    1.0000 </r>
       <r>    1.5337    1.0000 </r>
       <r>    2.1240    1.0000 </r>
       <r>    2.3206    1.0000 </r>
       <r>    2.7468    1.0000 </r>
       <r>    2.8236    1.0000 </r>
       <r>    2.9458    1.0000 </r>
       <r>    2.9618    1.0000 </r>
       <r>    3.3363    1.0000 </r>
       <r>    3.3939    1.0000 </r>
       <r>    3.3940    1.0000 </r>
       <r>    3.4780    1.0000 </r>
       <r>    3.6096    1.0000 </r>
       <r>    3.6321    1.0000 </r>
       <r>    3.7682    1.0000 </r>
       <r>    3.8416    1.0000 </r>
       <r>    4.2251    1.0000 </r>
       <r>    4.2993    1.0000 </r>
       <r>    4.3376    1.0000 </r>
       <r>    4.3414    1.0000 </r>
       <r>    4.6150    1.0000 </r>
       <r>    4.7134    1.0000 </r>
       <r>    4.9933    1.0000 </r>
       <r>    5.1776    1.0000 </r>
       <r>    5.3192    1.0000 </r>
       <r>    5.4713    1.0000 </r>
       <r>    5.5232    1.0000 </r>
       <r>    5.5984    1.0000 </r>
       <r>    5.6944    1.0000 </r>
       <r>    5.7372    1.0000 </r>
       <r>    5.7465    1.0000 </r>
       <r>    5.8598    0.9996 </r>
       <r>    5.9137    0.9984 </r>
       <r>    5.9892    0.9922 </r>
       <r>    6.0149    0.9874 </r>
       <r>    6.0626    0.9713 </r>
       <r>    6.0833    0.9603 </r>
       <r>    6.2147    0.7953 </r>
       <r>    6.2359    0.7501 </r>
       <r>    6.6335    0.0163 </r>
       <r>    6.8300    0.0002 </r>
       <r>    6.9908    0.0000 </r>
       <r>    7.0174    0.0000 </r>
       <r>    7.8977    0.0000 </r>
       <r>    7.9120    0.0000 </r>
       <r>    7.9832    0.0000 </r>
       <r>    8.0602    0.0000 </r>
       <r>    8.4213    0.0000 </r>
       <r>    9.0296    0.0000 </r>
       <r>    9.3587    0.0000 </r>
       <r>    9.4430    0.0000 </r>
       <r>   10.1233    0.0000 </r>
       <r>   10.2566    0.0000 </r>
       <r>   10.6699    0.0000 </r>
       <r>   10.7235    0.0000 </r>
       <r>   10.9174    0.0000 </r>
       <r>   11.0498    0.0000 </r>
       <r>   11.6101    0.0000 </r>
       <r>   11.9668    0.0000 </r>
       <r>   12.3854    0.0000 </r>
       <r>   12.5120    0.0000 </r>
       <r>   12.6755    0.0000 </r>
       <r>   12.8887    0.0000 </r>
       <r>   13.5951    0.0000 </r>
       <r>   13.8307    0.0000 </r>
       <r>   13.8672    0.0000 </r>
       <r>   14.1072    0.0000 </r>
       <r>   14.7731    0.0000 </r>
       <r>   15.1627    0.0000 </r>
       <r>   15.4739    0.0000 </r>
       <r>   15.6453    0.0000 </r>
       <r>   15.8240    0.0000 </r>
       <r>   16.0237    0.0000 </r>
       <r>   16.8348    0.0000 </r>
       <r>   16.8637    0.0000 </r>
       <r>   17.1696    0.0000 </r>
      </set>
      <set comment="kpoint 7">
       <r>  -30.0555    1.0000 </r>
       <r>  -30.0519    1.0000 </r>
       <r>  -11.6263    1.0000 </r>
       <r>  -11.5632    1.0000 </r>
       <r>  -11.5360    1.0000 </r>
       <r>  -11.5355    1.0000 </r>
       <r>  -11.5191    1.0000 </r>
       <r>  -11.4872    1.0000 </r>
       <r>   -4.3169    1.0000 </r>
       <r>   -2.7646    1.0000 </r>
       <r>   -2.7560    1.0000 </r>
       <r>   -2.4462    1.0000 </r>
       <r>   -0.8892    1.0000 </r>
       <r>    0.0025    1.0000 </r>
       <r>    0.3167    1.0000 </r>
       <r>    0.4413    1.0000 </r>
       <r>    0.6826    1.0000 </r>
       <r>    1.2899    1.0000 </r>
       <r>    1.5697    1.0000 </r>
       <r>    1.8139    1.0000 </r>
       <r>    2.3082    1.0000 </r>
       <r>    2.3598    1.0000 </r>
       <r>    2.5073    1.0000 </r>
       <r>    2.8241    1.0000 </r>
       <r>    2.8939    1.0000 </r>
       <r>    3.0148    1.0000 </r>
       <r>    3.1422    1.0000 </r>
       <r>    3.2129    1.0000 </r>
       <r>    3.3673    1.0000 </r>
       <r>    3.4856    1.0000 </r>
       <r>    3.5517    1.0000 </r>
       <r>    3.7384    1.0000 </r>
       <r>    3.8860    1.0000 </r>
       <r>    3.9096    1.0000 </r>
       <r>    4.2743    1.0000 </r>
       <r>    4.2755    1.0000 </r>
       <r>    4.3812    1.0000 </r>
       <r>    4.5416    1.0000 </r>
       <r>    4.6893    1.0000 </r>
       <r>    4.8976    1.0000 </r>
       <r>    4.9374    1.0000 </r>
       <r>    4.9563    1.0000 </r>
       <r>    5.2201    1.0000 </r>
       <r>    5.2776    1.0000 </r>
       <r>    5.4969    1.0000 </r>
       <r>    5.5039    1.0000 </r>
       <r>    5.6762    1.0000 </r>
       <r>    5.6991    1.0000 </r>
       <r>    5.7402    1.0000 </r>
       <r>    5.7918    0.9999 </r>
       <r>    5.8665    0.9995 </r>
       <r>    5.8705    0.9994 </r>
       <r>    5.9663    0.9951 </r>
       <r>    6.0247    0.9849 </r>
       <r>    6.0393    0.9805 </r>
       <r>    6.1990    0.8253 </r>
       <r>    6.5899    0.0338 </r>
       <r>    6.7265    0.0026 </r>
       <r>    6.8568    0.0001 </r>
       <r>    7.0680    0.0000 </r>
       <r>    7.1765    0.0000 </r>
       <r>    7.5952    0.0000 </r>
       <r>    7.8429    0.0000 </r>
       <r>    7.9770    0.0000 </r>
       <r>    8.1385    0.0000 </r>
       <r>    8.3170    0.0000 </r>
       <r>    9.0611    0.0000 </r>
       <r>    9.1709    0.0000 </r>
       <r>    9.7179    0.0000 </r>
       <r>    9.8956    0.0000 </r>
       <r>   10.1162    0.0000 </r>
       <r>   10.6251    0.0000 </r>
       <r>   10.8453    0.0000 </r>
       <r>   11.0781    0.0000 </r>
       <r>   11.4699    0.0000 </r>
       <r>   11.7294    0.0000 </r>
       <r>   12.2040    0.0000 </r>
       <r>   12.3082    0.0000 </r>
       <r>   12.4012    0.0000 </r>
       <r>   12.7146    0.0000 </r>
       <r>   12.9697    0.0000 </r>
       <r>   13.0893    0.0000 </r>
       <r>   13.6358    0.0000 </r>
       <r>   13.7117    0.0000 </r>
       <r>   13.7710    0.0000 </r>
       <r>   14.2758    0.0000 </r>
       <r>   15.1223    0.0000 </r>
       <r>   15.2718    0.0000 </r>
       <r>   15.5738    0.0000 </r>
       <r>   15.6215    0.0000 </r>
       <r>   16.4159    0.0000 </r>
       <r>   16.6258    0.0000 </r>
       <r>   16.7114    0.0000 </r>
       <r>   17.2145    0.0000 </r>
      </set>
      <set comment="kpoint 8">
       <r>  -30.0543    1.0000 </r>
       <r>  -30.0523    1.0000 </r>
       <r>  -11.6016    1.0000 </r>
       <r>  -11.5868    1.0000 </r>
       <r>  -11.5721    1.0000 </r>
       <r>  -11.5524    1.0000 </r>
       <r>  -11.5084    1.0000 </r>
       <r>  -11.4911    1.0000 </r>
       <r>   -3.8973    1.0000 </r>
       <r>   -3.0099    1.0000 </r>
       <r>   -2.6934    1.0000 </r>
       <r>   -2.4890    1.0000 </r>
       <r>   -0.9325    1.0000 </r>
       <r>   -0.4144    1.0000 </r>
       <r>    0.3021    1.0000 </r>
       <r>    0.3985    1.0000 </r>
       <r>    0.9814    1.0000 </r>
       <r>    1.5252    1.0000 </r>
       <r>    1.8602    1.0000 </r>
       <r>    1.8671    1.0000 </r>
       <r>    2.0966    1.0000 </r>
       <r>    2.4206    1.0000 </r>
       <r>    2.4764    1.0000 </r>
       <r>    2.6252    1.0000 </r>
       <r>    2.9503    1.0000 </r>
       <r>    2.9858    1.0000 </r>
       <r>    3.0710    1.0000 </r>
       <r>    3.0890    1.0000 </r>
       <r>    3.3788    1.0000 </r>
       <r>    3.5948    1.0000 </r>
       <r>    3.6177    1.0000 </r>
       <r>    3.8488    1.0000 </r>
       <r>    3.9637    1.0000 </r>
       <r>    3.9666    1.0000 </r>
       <r>    4.1194    1.0000 </r>
       <r>    4.2212    1.0000 </r>
       <r>    4.5191    1.0000 </r>
       <r>    4.6989    1.0000 </r>
       <r>    4.8002    1.0000 </r>
       <r>    4.8418    1.0000 </r>
       <r>    4.8456    1.0000 </r>
       <r>    5.0376    1.0000 </r>
       <r>    5.0472    1.0000 </r>
       <r>    5.2542    1.0000 </r>
       <r>    5.3256    1.0000 </r>
       <r>    5.3796    1.0000 </r>
       <r>    5.5464    1.0000 </r>
       <r>    5.6188    1.0000 </r>
       <r>    5.7100    1.0000 </r>
       <r>    5.7189    1.0000 </r>
       <r>    5.7621    1.0000 </r>
       <r>    5.8944    0.9990 </r>
       <r>    5.9192    0.9982 </r>
       <r>    6.0061    0.9893 </r>
       <r>    6.0407    0.9801 </r>
       <r>    6.1441    0.9073 </r>
       <r>    6.8334    0.0002 </r>
       <r>    6.9234    0.0000 </r>
       <r>    7.0619    0.0000 </r>
       <r>    7.1449    0.0000 </r>
       <r>    7.3383    0.0000 </r>
       <r>    7.3838    0.0000 </r>
       <r>    7.7092    0.0000 </r>
       <r>    7.8762    0.0000 </r>
       <r>    8.2032    0.0000 </r>
       <r>    8.3464    0.0000 </r>
       <r>    9.0940    0.0000 </r>
       <r>    9.1190    0.0000 </r>
       <r>    9.2640    0.0000 </r>
       <r>    9.6960    0.0000 </r>
       <r>   10.2776    0.0000 </r>
       <r>   10.5935    0.0000 </r>
       <r>   11.2067    0.0000 </r>
       <r>   11.4494    0.0000 </r>
       <r>   11.6894    0.0000 </r>
       <r>   11.9847    0.0000 </r>
       <r>   12.0476    0.0000 </r>
       <r>   12.2616    0.0000 </r>
       <r>   12.5071    0.0000 </r>
       <r>   12.6172    0.0000 </r>
       <r>   12.9365    0.0000 </r>
       <r>   13.2066    0.0000 </r>
       <r>   13.2994    0.0000 </r>
       <r>   13.3732    0.0000 </r>
       <r>   13.4591    0.0000 </r>
       <r>   13.8709    0.0000 </r>
       <r>   14.8509    0.0000 </r>
       <r>   14.9069    0.0000 </r>
       <r>   15.5235    0.0000 </r>
       <r>   15.5365    0.0000 </r>
       <r>   16.4692    0.0000 </r>
       <r>   16.4754    0.0000 </r>
       <r>   17.1067    0.0000 </r>
       <r>   17.5123    0.0000 </r>
      </set>
      <set comment="kpoint 9">
       <r>  -30.0531    1.0000 </r>
       <r>  -30.0531    1.0000 </r>
       <r>  -11.5925    1.0000 </r>
       <r>  -11.5925    1.0000 </r>
       <r>  -11.5747    1.0000 </r>
       <r>  -11.5747    1.0000 </r>
       <r>  -11.4983    1.0000 </r>
       <r>  -11.4983    1.0000 </r>
       <r>   -3.4257    1.0000 </r>
       <r>   -3.4257    1.0000 </r>
       <r>   -2.5899    1.0000 </r>
       <r>   -2.5899    1.0000 </r>
       <r>   -0.7536    1.0000 </r>
       <r>   -0.7536    1.0000 </r>
       <r>    0.3433    1.0000 </r>
       <r>    0.3433    1.0000 </r>
       <r>    1.4425    1.0000 </r>
       <r>    1.4425    1.0000 </r>
       <r>    1.7931    1.0000 </r>
       <r>    1.7931    1.0000 </r>
       <r>    2.2288    1.0000 </r>
       <r>    2.2288    1.0000 </r>
       <r>    2.4929    1.0000 </r>
       <r>    2.4929    1.0000 </r>
       <r>    3.0014    1.0000 </r>
       <r>    3.0014    1.0000 </r>
       <r>    3.0950    1.0000 </r>
       <r>    3.0950    1.0000 </r>
       <r>    3.5669    1.0000 </r>
       <r>    3.5669    1.0000 </r>
       <r>    3.7176    1.0000 </r>
       <r>    3.7176    1.0000 </r>
       <r>    4.0089    1.0000 </r>
       <r>    4.0089    1.0000 </r>
       <r>    4.0790    1.0000 </r>
       <r>    4.0790    1.0000 </r>
       <r>    4.6738    1.0000 </r>
       <r>    4.6738    1.0000 </r>
       <r>    4.7846    1.0000 </r>
       <r>    4.7846    1.0000 </r>
       <r>    4.9853    1.0000 </r>
       <r>    4.9853    1.0000 </r>
       <r>    5.1220    1.0000 </r>
       <r>    5.1220    1.0000 </r>
       <r>    5.2681    1.0000 </r>
       <r>    5.2681    1.0000 </r>
       <r>    5.5747    1.0000 </r>
       <r>    5.5747    1.0000 </r>
       <r>    5.6444    1.0000 </r>
       <r>    5.6444    1.0000 </r>
       <r>    5.8223    0.9998 </r>
       <r>    5.8223    0.9998 </r>
       <r>    5.9938    0.9915 </r>
       <r>    5.9938    0.9915 </r>
       <r>    6.0578    0.9735 </r>
       <r>    6.0578    0.9735 </r>
       <r>    6.9187    0.0000 </r>
       <r>    6.9187    0.0000 </r>
       <r>    7.1791    0.0000 </r>
       <r>    7.1791    0.0000 </r>
       <r>    7.4930    0.0000 </r>
       <r>    7.4930    0.0000 </r>
       <r>    7.6385    0.0000 </r>
       <r>    7.6385    0.0000 </r>
       <r>    8.3275    0.0000 </r>
       <r>    8.3275    0.0000 </r>
       <r>    9.1064    0.0000 </r>
       <r>    9.1064    0.0000 </r>
       <r>    9.2618    0.0000 </r>
       <r>    9.2618    0.0000 </r>
       <r>   10.5221    0.0000 </r>
       <r>   10.5221    0.0000 </r>
       <r>   11.5529    0.0000 </r>
       <r>   11.5529    0.0000 </r>
       <r>   11.8281    0.0000 </r>
       <r>   11.8281    0.0000 </r>
       <r>   12.1453    0.0000 </r>
       <r>   12.1453    0.0000 </r>
       <r>   12.5407    0.0000 </r>
       <r>   12.5407    0.0000 </r>
       <r>   13.1004    0.0000 </r>
       <r>   13.1004    0.0000 </r>
       <r>   13.2527    0.0000 </r>
       <r>   13.2527    0.0000 </r>
       <r>   13.5281    0.0000 </r>
       <r>   13.5281    0.0000 </r>
       <r>   14.6448    0.0000 </r>
       <r>   14.6448    0.0000 </r>
       <r>   15.4729    0.0000 </r>
       <r>   15.4729    0.0000 </r>
       <r>   16.5519    0.0000 </r>
       <r>   16.5519    0.0000 </r>
       <r>   17.4698    0.0000 </r>
       <r>   17.4700    0.0000 </r>
      </set>
      <set comment="kpoint 10">
       <r>  -30.0547    1.0000 </r>
       <r>  -30.0519    1.0000 </r>
       <r>  -11.6116    1.0000 </r>
       <r>  -11.5744    1.0000 </r>
       <r>  -11.5562    1.0000 </r>
       <r>  -11.5421    1.0000 </r>
       <r>  -11.5261    1.0000 </r>
       <r>  -11.4994    1.0000 </r>
       <r>   -4.0470    1.0000 </r>
       <r>   -2.7411    1.0000 </r>
       <r>   -2.7331    1.0000 </r>
       <r>   -2.4508    1.0000 </r>
       <r>   -1.1068    1.0000 </r>
       <r>   -0.3184    1.0000 </r>
       <r>    0.3389    1.0000 </r>
       <r>    0.3788    1.0000 </r>
       <r>    0.5542    1.0000 </r>
       <r>    1.6177    1.0000 </r>
       <r>    1.8879    1.0000 </r>
       <r>    2.0760    1.0000 </r>
       <r>    2.2998    1.0000 </r>
       <r>    2.3892    1.0000 </r>
       <r>    2.4875    1.0000 </r>
       <r>    2.8016    1.0000 </r>
       <r>    2.8528    1.0000 </r>
       <r>    3.0378    1.0000 </r>
       <r>    3.0435    1.0000 </r>
       <r>    3.2842    1.0000 </r>
       <r>    3.3282    1.0000 </r>
       <r>    3.4691    1.0000 </r>
       <r>    3.5825    1.0000 </r>
       <r>    3.7003    1.0000 </r>
       <r>    3.7884    1.0000 </r>
       <r>    3.9958    1.0000 </r>
       <r>    4.2751    1.0000 </r>
       <r>    4.3522    1.0000 </r>
       <r>    4.4184    1.0000 </r>
       <r>    4.4832    1.0000 </r>
       <r>    4.7148    1.0000 </r>
       <r>    4.7598    1.0000 </r>
       <r>    4.8178    1.0000 </r>
       <r>    5.0098    1.0000 </r>
       <r>    5.1065    1.0000 </r>
       <r>    5.2458    1.0000 </r>
[...]
       <r>     8.5530     2.6694    65.9827 </r>
       <r>     8.7290     3.0258    66.5154 </r>
       <r>     8.9051     3.2349    67.0848 </r>
       <r>     9.0811     3.4947    67.7000 </r>
       <r>     9.2572     3.4357    68.3049 </r>
       <r>     9.4332     2.9408    68.8225 </r>
       <r>     9.6092     2.6719    69.2929 </r>
       <r>     9.7853     2.1346    69.6687 </r>
       <r>     9.9613     1.4291    69.9203 </r>
       <r>    10.1374     1.1744    70.1270 </r>
       <r>    10.3134     1.4741    70.3865 </r>
       <r>    10.4894     2.2270    70.7786 </r>
       <r>    10.6655     2.9373    71.2956 </r>
       <r>    10.8415     3.0870    71.8391 </r>
       <r>    11.0176     2.8595    72.3425 </r>
       <r>    11.1936     3.0402    72.8777 </r>
       <r>    11.3697     3.6947    73.5281 </r>
       <r>    11.5457     4.3429    74.2926 </r>
       <r>    11.7217     4.7104    75.1218 </r>
       <r>    11.8978     4.3654    75.8903 </r>
       <r>    12.0738     4.0762    76.6079 </r>
       <r>    12.2499     4.5372    77.4066 </r>
       <r>    12.4259     5.0630    78.2979 </r>
       <r>    12.6019     4.9507    79.1694 </r>
       <r>    12.7780     4.1970    79.9083 </r>
       <r>    12.9540     3.5873    80.5398 </r>
       <r>    13.1301     4.1442    81.2693 </r>
       <r>    13.3061     5.2447    82.1926 </r>
       <r>    13.4821     5.4600    83.1538 </r>
       <r>    13.6582     4.6570    83.9736 </r>
       <r>    13.8342     3.5264    84.5944 </r>
       <r>    14.0103     2.5924    85.0507 </r>
       <r>    14.1863     1.9817    85.3996 </r>
       <r>    14.3623     1.4330    85.6519 </r>
       <r>    14.5384     0.9838    85.8250 </r>
       <r>    14.7144     0.9751    85.9967 </r>
       <r>    14.8905     1.9217    86.3350 </r>
       <r>    15.0665     3.2220    86.9022 </r>
       <r>    15.2425     3.4943    87.5173 </r>
       <r>    15.4186     3.3844    88.1131 </r>
       <r>    15.5946     3.3843    88.7089 </r>
       <r>    15.7707     3.0738    89.2500 </r>
       <r>    15.9467     2.7664    89.7370 </r>
       <r>    16.1227     2.9101    90.2493 </r>
       <r>    16.2988     3.1667    90.8068 </r>
       <r>    16.4748     3.2949    91.3868 </r>
       <r>    16.6509     3.0905    91.9309 </r>
       <r>    16.8269     2.8466    92.4320 </r>
       <r>    17.0029     2.7729    92.9201 </r>
       <r>    17.1790     2.6684    93.3899 </r>
       <r>    17.3550     1.9577    93.7345 </r>
       <r>    17.5311     0.9234    93.8970 </r>
       <r>    17.7071     0.3585    93.9601 </r>
       <r>    17.8831     0.1467    93.9860 </r>
       <r>    18.0592     0.0653    93.9975 </r>
       <r>    18.2352     0.0135    93.9998 </r>
       <r>    18.4113     0.0009    94.0000 </r>
       <r>    18.5873     0.0000    94.0000 </r>
       <r>    18.7633     0.0000    94.0000 </r>
       <r>    18.9394     0.0000    94.0000 </r>
       <r>    19.1154     0.0000    94.0000 </r>
       <r>    19.2915     0.0000    94.0000 </r>
       <r>    19.4675     0.0000    94.0000 </r>
       <r>    19.6435     0.0000    94.0000 </r>
       <r>    19.8196     0.0000    94.0000 </r>
       <r>    19.9956     0.0000    94.0000 </r>
       <r>    20.1717     0.0000    94.0000 </r>
       <r>    20.3477     0.0000    94.0000 </r>
      </set>
      <set comment="spin 2">
       <r>   -32.4644     0.0000     0.0000 </r>
       <r>   -32.2883     0.0000     0.0000 </r>
       <r>   -32.1123     0.0000     0.0000 </r>
       <r>   -31.9363     0.0000     0.0000 </r>
       <r>   -31.7602     0.0000     0.0000 </r>
       <r>   -31.5842     0.0000     0.0000 </r>
       <r>   -31.4081     0.0000     0.0000 </r>
       <r>   -31.2321     0.0000     0.0000 </r>
       <r>   -31.0561     0.0000     0.0000 </r>
       <r>   -30.8800     0.0000     0.0000 </r>
       <r>   -30.7040     0.0000     0.0000 </r>
       <r>   -30.5279     0.0053     0.0009 </r>
       <r>   -30.3519     0.2157     0.0389 </r>
       <r>   -30.1759     2.1194     0.4120 </r>
       <r>   -29.9998     5.2074     1.3287 </r>
       <r>   -29.8238     3.2731     1.9049 </r>
       <r>   -29.6477     0.5199     1.9964 </r>
       <r>   -29.4717     0.0201     2.0000 </r>
       <r>   -29.2957     0.0002     2.0000 </r>
       <r>   -29.1196     0.0000     2.0000 </r>
       <r>   -28.9436     0.0000     2.0000 </r>
       <r>   -28.7675     0.0000     2.0000 </r>
       <r>   -28.5915     0.0000     2.0000 </r>
       <r>   -28.4155     0.0000     2.0000 </r>
       <r>   -28.2394     0.0000     2.0000 </r>
       <r>   -28.0634     0.0000     2.0000 </r>
       <r>   -27.8873     0.0000     2.0000 </r>
       <r>   -27.7113     0.0000     2.0000 </r>
       <r>   -27.5353     0.0000     2.0000 </r>
       <r>   -27.3592     0.0000     2.0000 </r>
       <r>   -27.1832     0.0000     2.0000 </r>
       <r>   -27.0071     0.0000     2.0000 </r>
       <r>   -26.8311     0.0000     2.0000 </r>
       <r>   -26.6551     0.0000     2.0000 </r>
       <r>   -26.4790     0.0000     2.0000 </r>
       <r>   -26.3030     0.0000     2.0000 </r>
       <r>   -26.1269     0.0000     2.0000 </r>
       <r>   -25.9509     0.0000     2.0000 </r>
       <r>   -25.7749     0.0000     2.0000 </r>
       <r>   -25.5988     0.0000     2.0000 </r>
       <r>   -25.4228     0.0000     2.0000 </r>
       <r>   -25.2467     0.0000     2.0000 </r>
       <r>   -25.0707     0.0000     2.0000 </r>
       <r>   -24.8947     0.0000     2.0000 </r>
       <r>   -24.7186     0.0000     2.0000 </r>
       <r>   -24.5426     0.0000     2.0000 </r>
       <r>   -24.3665     0.0000     2.0000 </r>
       <r>   -24.1905     0.0000     2.0000 </r>
       <r>   -24.0145     0.0000     2.0000 </r>
       <r>   -23.8384     0.0000     2.0000 </r>
       <r>   -23.6624     0.0000     2.0000 </r>
       <r>   -23.4863     0.0000     2.0000 </r>
       <r>   -23.3103     0.0000     2.0000 </r>
       <r>   -23.1342     0.0000     2.0000 </r>
       <r>   -22.9582     0.0000     2.0000 </r>
       <r>   -22.7822     0.0000     2.0000 </r>
       <r>   -22.6061     0.0000     2.0000 </r>
       <r>   -22.4301     0.0000     2.0000 </r>
       <r>   -22.2540     0.0000     2.0000 </r>
       <r>   -22.0780     0.0000     2.0000 </r>
       <r>   -21.9020     0.0000     2.0000 </r>
       <r>   -21.7259     0.0000     2.0000 </r>
       <r>   -21.5499     0.0000     2.0000 </r>
       <r>   -21.3738     0.0000     2.0000 </r>
       <r>   -21.1978     0.0000     2.0000 </r>
       <r>   -21.0218     0.0000     2.0000 </r>
       <r>   -20.8457     0.0000     2.0000 </r>
       <r>   -20.6697     0.0000     2.0000 </r>
       <r>   -20.4936     0.0000     2.0000 </r>
       <r>   -20.3176     0.0000     2.0000 </r>
       <r>   -20.1416     0.0000     2.0000 </r>
       <r>   -19.9655     0.0000     2.0000 </r>
       <r>   -19.7895     0.0000     2.0000 </r>
       <r>   -19.6134     0.0000     2.0000 </r>
       <r>   -19.4374     0.0000     2.0000 </r>
       <r>   -19.2614     0.0000     2.0000 </r>
       <r>   -19.0853     0.0000     2.0000 </r>
       <r>   -18.9093     0.0000     2.0000 </r>
       <r>   -18.7332     0.0000     2.0000 </r>
       <r>   -18.5572     0.0000     2.0000 </r>
       <r>   -18.3812     0.0000     2.0000 </r>
       <r>   -18.2051     0.0000     2.0000 </r>
       <r>   -18.0291     0.0000     2.0000 </r>
       <r>   -17.8530     0.0000     2.0000 </r>
       <r>   -17.6770     0.0000     2.0000 </r>
       <r>   -17.5010     0.0000     2.0000 </r>
       <r>   -17.3249     0.0000     2.0000 </r>
       <r>   -17.1489     0.0000     2.0000 </r>
       <r>   -16.9728     0.0000     2.0000 </r>
       <r>   -16.7968     0.0000     2.0000 </r>
       <r>   -16.6208     0.0000     2.0000 </r>
       <r>   -16.4447     0.0000     2.0000 </r>
       <r>   -16.2687     0.0000     2.0000 </r>
       <r>   -16.0926     0.0000     2.0000 </r>
       <r>   -15.9166     0.0000     2.0000 </r>
       <r>   -15.7406     0.0000     2.0000 </r>
       <r>   -15.5645     0.0000     2.0000 </r>
       <r>   -15.3885     0.0000     2.0000 </r>
       <r>   -15.2124     0.0000     2.0000 </r>
       <r>   -15.0364     0.0000     2.0000 </r>
       <r>   -14.8604     0.0000     2.0000 </r>
       <r>   -14.6843     0.0000     2.0000 </r>
       <r>   -14.5083     0.0000     2.0000 </r>
       <r>   -14.3322     0.0000     2.0000 </r>
       <r>   -14.1562     0.0000     2.0000 </r>
       <r>   -13.9802     0.0000     2.0000 </r>
       <r>   -13.8041     0.0000     2.0000 </r>
       <r>   -13.6281     0.0000     2.0000 </r>
       <r>   -13.4520     0.0000     2.0000 </r>
       <r>   -13.2760     0.0000     2.0000 </r>
       <r>   -13.1000     0.0000     2.0000 </r>
       <r>   -12.9239     0.0000     2.0000 </r>
       <r>   -12.7479     0.0000     2.0000 </r>
       <r>   -12.5718     0.0000     2.0000 </r>
       <r>   -12.3958     0.0000     2.0000 </r>
       <r>   -12.2198     0.0002     2.0000 </r>
       <r>   -12.0437     0.0222     2.0039 </r>
       <r>   -11.8677     0.6880     2.1251 </r>
       <r>   -11.6916     5.8755     3.1594 </r>
       <r>   -11.5156    14.5652     5.7235 </r>
       <r>   -11.3395    10.6082     7.5909 </r>
       <r>   -11.1635     2.1998     7.9782 </r>
       <r>   -10.9875     0.1223     7.9997 </r>
       <r>   -10.8114     0.0017     8.0000 </r>
       <r>   -10.6354     0.0000     8.0000 </r>
       <r>   -10.4593     0.0000     8.0000 </r>
       <r>   -10.2833     0.0000     8.0000 </r>
       <r>   -10.1073     0.0000     8.0000 </r>
       <r>    -9.9312     0.0000     8.0000 </r>
       <r>    -9.7552     0.0000     8.0000 </r>
       <r>    -9.5791     0.0000     8.0000 </r>
       <r>    -9.4031     0.0000     8.0000 </r>
       <r>    -9.2271     0.0000     8.0000 </r>
       <r>    -9.0510     0.0000     8.0000 </r>
       <r>    -8.8750     0.0000     8.0000 </r>
       <r>    -8.6989     0.0000     8.0000 </r>
       <r>    -8.5229     0.0000     8.0000 </r>
       <r>    -8.3469     0.0000     8.0000 </r>
       <r>    -8.1708     0.0000     8.0000 </r>
       <r>    -7.9948     0.0000     8.0000 </r>
       <r>    -7.8187     0.0000     8.0000 </r>
       <r>    -7.6427     0.0000     8.0000 </r>
       <r>    -7.4667     0.0000     8.0000 </r>
       <r>    -7.2906     0.0000     8.0000 </r>
       <r>    -7.1146     0.0000     8.0000 </r>
       <r>    -6.9385     0.0000     8.0000 </r>
       <r>    -6.7625     0.0000     8.0000 </r>
       <r>    -6.5865     0.0000     8.0000 </r>
       <r>    -6.4104     0.0000     8.0000 </r>
       <r>    -6.2344     0.0000     8.0000 </r>
       <r>    -6.0583     0.0000     8.0000 </r>
       <r>    -5.8823     0.0000     8.0000 </r>
       <r>    -5.7063     0.0000     8.0000 </r>
       <r>    -5.5302     0.0000     8.0000 </r>
       <r>    -5.3542     0.0000     8.0000 </r>
       <r>    -5.1781     0.0001     8.0000 </r>
       <r>    -5.0021     0.0039     8.0007 </r>
       <r>    -4.8261     0.0374     8.0073 </r>
       <r>    -4.6500     0.1388     8.0317 </r>
       <r>    -4.4740     0.2640     8.0782 </r>
       <r>    -4.2979     0.4004     8.1487 </r>
       <r>    -4.1219     0.4874     8.2345 </r>
       <r>    -3.9459     0.6294     8.3453 </r>
       <r>    -3.7698     0.7834     8.4832 </r>
       <r>    -3.5938     0.9172     8.6447 </r>
       <r>    -3.4177     1.1994     8.8558 </r>
       <r>    -3.2417     1.5068     9.1211 </r>
       <r>    -3.0657     1.7963     9.4373 </r>
       <r>    -2.8896     2.6254     9.8995 </r>
       <r>    -2.7136     4.0668    10.6154 </r>
       <r>    -2.5375     4.3180    11.3755 </r>
       <r>    -2.3615     2.6527    11.8425 </r>
       <r>    -2.1855     0.8001    11.9834 </r>
       <r>    -2.0094     0.0917    11.9995 </r>
       <r>    -1.8334     0.0125    12.0017 </r>
       <r>    -1.6573     0.0724    12.0145 </r>
       <r>    -1.4813     0.2688    12.0618 </r>
       <r>    -1.3053     0.5377    12.1564 </r>
       <r>    -1.1292     0.8390    12.3041 </r>
       <r>    -0.9532     1.1517    12.5069 </r>
       <r>    -0.7771     1.4933    12.7698 </r>
       <r>    -0.6011     1.7188    13.0723 </r>
       <r>    -0.4250     1.5447    13.3443 </r>
       <r>    -0.2490     1.2293    13.5607 </r>
       <r>    -0.0730     1.0026    13.7372 </r>
       <r>     0.1031     1.6002    14.0189 </r>
       <r>     0.2791     3.7869    14.6855 </r>
       <r>     0.4552     4.8322    15.5362 </r>
       <r>     0.6312     2.6143    15.9964 </r>
       <r>     0.8072     1.0691    16.1846 </r>
       <r>     0.9833     1.0427    16.3681 </r>
       <r>     1.1593     1.6644    16.6611 </r>
       <r>     1.3354     2.4808    17.0979 </r>
       <r>     1.5114     3.2951    17.6779 </r>
       <r>     1.6874     3.4829    18.2910 </r>
       <r>     1.8635     3.4600    18.9002 </r>
       <r>     2.0395     3.5576    19.5264 </r>
       <r>     2.2156     4.3069    20.2846 </r>
       <r>     2.3916     5.6336    21.2763 </r>
       <r>     2.5676     6.5027    22.4211 </r>
       <r>     2.7437     5.8016    23.4424 </r>
       <r>     2.9197     5.4326    24.3988 </r>
       <r>     3.0958     6.8284    25.6008 </r>
       <r>     3.2718     7.2769    26.8819 </r>
       <r>     3.4478     6.8769    28.0925 </r>
       <r>     3.6239     7.4704    29.4076 </r>
       <r>     3.7999     8.3896    30.8845 </r>
       <r>     3.9760     8.3862    32.3608 </r>
       <r>     4.1520     8.1076    33.7880 </r>
       <r>     4.3280     8.2171    35.2346 </r>
       <r>     4.5041     7.9008    36.6254 </r>
       <r>     4.6801     6.7208    37.8086 </r>
       <r>     4.8562     6.8715    39.0182 </r>
       <r>     5.0322     6.5587    40.1728 </r>
       <r>     5.2082     6.6325    41.3404 </r>
       <r>     5.3843     8.5211    42.8405 </r>
       <r>     5.5603    10.3599    44.6643 </r>
       <r>     5.7364    11.4122    46.6733 </r>
       <r>     5.9124    12.6148    48.8940 </r>
       <r>     6.0884    13.1958    51.2170 </r>
       <r>     6.2645    12.8057    53.4713 </r>
       <r>     6.4405     9.7652    55.1904 </r>
       <r>     6.6166     4.8661    56.0470 </r>
       <r>     6.7926     2.4111    56.4715 </r>
       <r>     6.9686     4.1290    57.1983 </r>
       <r>     7.1447     6.7137    58.3802 </r>
       <r>     7.3207     6.6217    59.5459 </r>
       <r>     7.4968     5.4721    60.5092 </r>
       <r>     7.6728     5.0298    61.3947 </r>
       <r>     7.8488     5.4788    62.3592 </r>
       <r>     8.0249     6.0740    63.4284 </r>
       <r>     8.2009     5.4378    64.3857 </r>
       <r>     8.3770     4.0480    65.0983 </r>
       <r>     8.5530     3.0875    65.6418 </r>
       <r>     8.7290     2.8518    66.1439 </r>
       <r>     8.9051     3.2197    66.7107 </r>
       <r>     9.0811     3.3292    67.2967 </r>
       <r>     9.2572     3.6110    67.9324 </r>
       <r>     9.4332     3.3210    68.5170 </r>
       <r>     9.6092     2.9106    69.0294 </r>
       <r>     9.7853     2.5452    69.4775 </r>
       <r>     9.9613     1.8113    69.7964 </r>
       <r>    10.1374     1.2812    70.0219 </r>
       <r>    10.3134     1.3167    70.2537 </r>
       <r>    10.4894     1.8900    70.5864 </r>
       <r>    10.6655     2.7251    71.0661 </r>
       <r>    10.8415     3.1667    71.6236 </r>
       <r>    11.0176     3.0534    72.1611 </r>
       <r>    11.1936     2.9933    72.6881 </r>
       <r>    11.3697     3.5339    73.3102 </r>
       <r>    11.5457     4.2060    74.0506 </r>
       <r>    11.7217     4.7571    74.8880 </r>
       <r>    11.8978     4.5703    75.6926 </r>
       <r>    12.0738     4.1758    76.4277 </r>
       <r>    12.2499     4.5142    77.2224 </r>
       <r>    12.4259     5.0814    78.1169 </r>
       <r>    12.6019     5.0715    79.0097 </r>
       <r>    12.7780     4.4124    79.7865 </r>
       <r>    12.9540     3.7299    80.4431 </r>
       <r>    13.1301     4.0873    81.1626 </r>
       <r>    13.3061     5.2139    82.0805 </r>
       <r>    13.4821     5.5827    83.0632 </r>
       <r>    13.6582     4.8454    83.9162 </r>
       <r>    13.8342     3.6870    84.5653 </r>
       <r>    14.0103     2.6721    85.0357 </r>
       <r>    14.1863     2.0175    85.3909 </r>
       <r>    14.3623     1.4482    85.6458 </r>
       <r>    14.5384     0.9671    85.8160 </r>
       <r>    14.7144     0.8899    85.9727 </r>
       <r>    14.8905     1.7298    86.2772 </r>
       <r>    15.0665     3.1065    86.8241 </r>
       <r>    15.2425     3.5302    87.4455 </r>
       <r>    15.4186     3.3833    88.0411 </r>
       <r>    15.5946     3.3700    88.6344 </r>
       <r>    15.7707     3.1191    89.1835 </r>
       <r>    15.9467     2.7762    89.6722 </r>
       <r>    16.1227     2.8708    90.1776 </r>
       <r>    16.2988     3.1159    90.7261 </r>
       <r>    16.4748     3.2818    91.3038 </r>
       <r>    16.6509     3.1309    91.8550 </r>
       <r>    16.8269     2.8517    92.3570 </r>
       <r>    17.0029     2.7534    92.8417 </r>
       <r>    17.1790     2.6969    93.3165 </r>
       <r>    17.3550     2.1332    93.6920 </r>
       <r>    17.5311     1.0631    93.8792 </r>
       <r>    17.7071     0.4235    93.9537 </r>
       <r>    17.8831     0.1683    93.9833 </r>
       <r>    18.0592     0.0752    93.9966 </r>
       <r>    18.2352     0.0180    93.9998 </r>
       <r>    18.4113     0.0014    94.0000 </r>
       <r>    18.5873     0.0000    94.0000 </r>
       <r>    18.7633     0.0000    94.0000 </r>
       <r>    18.9394     0.0000    94.0000 </r>
       <r>    19.1154     0.0000    94.0000 </r>
       <r>    19.2915     0.0000    94.0000 </r>
       <r>    19.4675     0.0000    94.0000 </r>
       <r>    19.6435     0.0000    94.0000 </r>
       <r>    19.8196     0.0000    94.0000 </r>
       <r>    19.9956     0.0000    94.0000 </r>
       <r>    20.1717     0.0000    94.0000 </r>
       <r>    20.3477     0.0000    94.0000 </r>
      </set>
     </set>
    </array>
   </total>
  </dos>
 </calculation>
 <structure name="finalpos" >
  <crystal>
   <varray name="basis" >
    <v>       5.07143408       0.00000000       0.00000000 </v>
    <v>       0.00000000       5.07143408       0.00000000 </v>
    <v>       0.00000000       0.00000000       7.04060392 </v>
   </varray>
   <i name="volume">    181.08041557 </i>
   <varray name="rec_basis" >
    <v>       0.19718288       0.00000000       0.00000000 </v>
    <v>       0.00000000       0.19718288       0.00000000 </v>
    <v>       0.00000000      -0.00000000       0.14203327 </v>
   </varray>
  </crystal>
  <varray name="positions" >
   <v>       0.50000000       0.17454406       0.15814774 </v>
   <v>       0.50000000       0.82545594       0.15814774 </v>
   <v>      -0.00000000       0.32545594       0.34185226 </v>
   <v>       0.00000000       0.67454406       0.34185226 </v>
   <v>       0.32545594      -0.00000000       0.65814774 </v>
   <v>       0.67454406      -0.00000000       0.65814774 </v>
   <v>       0.17454406       0.50000000       0.84185226 </v>
   <v>       0.82545594       0.50000000       0.84185226 </v>
   <v>       0.25873318       0.50000000       0.13068472 </v>
   <v>       0.74126682       0.50000000       0.13068472 </v>
   <v>       0.24126682      -0.00000000       0.36931528 </v>
   <v>       0.75873318      -0.00000000       0.36931528 </v>
   <v>      -0.00000000       0.24126682       0.63068472 </v>
   <v>       0.00000000       0.75873318       0.63068472 </v>
   <v>       0.50000000       0.25873318       0.86931528 </v>
   <v>       0.50000000       0.74126682       0.86931528 </v>
   <v>      -0.00000000      -0.00000000       0.00000000 </v>
   <v>       0.50000000       0.50000000       0.50000000 </v>
  </varray>
 </structure>
</modeling>
